default_name
  2739
  12.7640000 -27.6180000  14.7990000  13.6240000 -27.1830000  15.0650000
  12.9280000 -28.1930000  13.9970000  12.3360000 -28.0080000  15.6150000
  11.8490000 -26.5740000  14.3440000  11.0810000 -26.3820000  15.1080000
  12.6320000 -25.2680000  14.0940000  13.1870000 -25.0400000  15.0160000
  13.3420000 -25.4660000  13.2780000  11.7450000 -24.0700000  13.7210000
  11.4890000 -24.1760000  12.6570000  10.8300000 -24.1440000  14.3270000
  12.5110000 -22.4480000  13.9920000  13.7830000 -22.4520000  12.7030000
  13.3070000 -22.5540000  11.7170000  14.3470000 -21.5080000  12.7410000
  14.4690000 -23.2960000  12.8680000  11.0680000 -27.0700000  13.1190000
  11.6810000 -27.5490000  12.1640000   9.7320000 -26.9620000  13.1930000
   9.3610000 -26.4320000  13.9560000   8.7950000 -27.5370000  12.2270000
   9.2990000 -27.7660000  11.2760000   8.1760000 -28.8500000  12.7920000
   7.7150000 -28.5850000  13.7550000   7.1300000 -29.5350000  11.8940000
   7.5900000 -29.8010000  10.9310000   6.7630000 -30.4460000  12.3890000
   6.2890000 -28.8480000  11.7200000   9.1990000 -29.7950000  13.0370000
   8.7970000 -30.6360000  13.4000000   7.6460000 -26.5490000  11.9680000
   7.0610000 -26.0400000  12.9250000   7.3180000 -26.3280000  10.6830000
   7.9560000 -26.6420000   9.9800000   6.1300000 -25.5860000  10.2590000
   5.9210000 -24.7800000  10.9780000   6.3460000 -24.9610000   8.8650000
   6.7820000 -25.7330000   8.2140000   5.3620000 -24.6650000   8.4730000
   7.2770000 -23.7310000   8.8980000   6.8050000 -23.0360000   9.6070000
   8.2530000 -24.0490000   9.2920000   7.4740000 -23.0300000   7.5500000
   8.3950000 -22.1870000   7.4920000   6.6930000 -23.3030000   6.6110000
   4.8820000 -26.4800000  10.2770000   4.9730000 -27.6630000   9.9500000
   3.7400000 -25.8820000  10.6480000   3.8020000 -24.9200000  10.9140000
   2.4360000 -26.5360000  10.7160000   2.4650000 -27.5000000  10.1860000
   2.0620000 -26.7950000  12.1910000   2.2580000 -25.8560000  12.7300000
   0.9850000 -27.0150000  12.2180000   2.8250000 -27.9260000  12.8530000
   2.3860000 -29.2550000  12.6810000   1.5100000 -29.4600000  12.0480000
   3.0610000 -30.3150000  13.3120000   2.7160000 -31.3500000  13.1740000
   4.1850000 -30.0490000  14.1160000   4.8230000 -31.0760000  14.7440000
   4.4050000 -31.9660000  14.5610000   4.6400000 -28.7240000  14.2740000
   5.5280000 -28.5200000  14.8900000   3.9610000 -27.6630000  13.6460000
   4.3160000 -26.6300000  13.7740000   1.4040000 -25.6300000  10.0390000
   1.0490000 -24.5970000  10.6080000   0.9300000 -26.0380000   8.8500000
   1.4070000 -26.7900000   8.3960000  -0.1480000 -25.3650000   8.1280000
  -0.0780000 -24.2790000   8.2900000  -0.0570000 -25.6440000   6.6150000
   0.2930000 -26.6780000   6.4800000  -1.0650000 -25.5410000   6.1880000
   0.9030000 -24.6800000   5.8990000   0.7170000 -23.6680000   6.2890000
   1.9310000 -24.9840000   6.1450000   0.7200000 -24.6820000   4.3760000
   1.1290000 -25.6320000   4.0010000  -0.3620000 -24.6460000   4.1790000
   1.4110000 -23.5090000   3.6600000   1.2110000 -23.6020000   2.5820000
   0.9710000 -22.5730000   4.0350000   2.8640000 -23.4940000   3.8900000
   3.0470000 -23.3120000   4.8560000   3.2510000 -24.3810000   3.6390000
   3.2820000 -22.7780000   3.3320000  -1.5190000 -25.7220000   8.7150000
  -2.0990000 -26.7460000   8.3580000  -2.0010000 -24.8440000   9.6030000
  -1.3880000 -24.1070000   9.8890000  -3.3270000 -24.9130000  10.2050000
  -3.6810000 -25.9540000  10.2280000  -3.2660000 -24.3780000  11.6600000
  -3.0780000 -23.3060000  11.5010000  -4.2350000 -24.5090000  12.1640000
  -2.1400000 -24.9740000  12.5440000  -1.1720000 -24.6650000  12.1230000
  -2.2410000 -24.4970000  14.0010000  -3.2090000 -24.8060000  14.4230000
  -1.4260000 -24.9420000  14.5900000  -2.1600000 -23.4000000  14.0340000
  -2.0650000 -26.5060000  12.4890000  -1.8760000 -26.8280000  11.4540000
  -1.2480000 -26.8570000  13.1370000  -3.0170000 -26.9330000  12.8370000
  -4.3070000 -24.0950000   9.3500000  -3.9020000 -23.1370000   8.6920000
  -5.5840000 -24.4880000   9.3780000  -5.8050000 -25.3010000   9.9170000
  -6.6740000 -23.7830000   8.7110000  -6.3520000 -22.7810000   8.3920000
  -7.2040000 -24.5540000   7.4670000  -7.6160000 -25.5120000   7.8170000
  -8.2890000 -23.7790000   6.6990000  -7.8770000 -22.8210000   6.3490000
  -8.6220000 -24.3730000   5.8350000  -9.1440000 -23.5880000   7.3640000
  -6.0910000 -24.9100000   6.4710000  -5.3430000 -25.5460000   6.9680000
  -6.5230000 -25.4510000   5.6160000  -5.6090000 -23.9880000   6.1150000
  -7.8250000 -23.6810000   9.7200000  -8.1170000 -24.6680000  10.3900000
  -8.4690000 -22.5100000   9.7990000  -8.1160000 -21.7430000   9.2640000
  -9.6460000 -22.2870000  10.6330000  -9.8420000 -23.1580000  11.2760000
  -9.4950000 -21.0290000  11.5340000  -9.4440000 -20.1460000  10.8800000
 -10.6660000 -20.8690000  12.5190000 -10.7180000 -21.7510000  13.1740000
 -10.5110000 -19.9680000  13.1300000 -11.6070000 -20.7730000  11.9580000
  -8.1790000 -21.0650000  12.3300000  -7.3290000 -21.0990000  11.6330000
  -8.1030000 -20.1640000  12.9560000  -8.1630000 -21.9580000  12.9720000
 -10.8500000 -22.1140000   9.6930000 -10.8780000 -21.1610000   8.9130000
 -11.7900000 -23.0710000   9.7670000 -11.6520000 -23.7770000  10.4610000
 -12.9760000 -23.1600000   8.9120000 -13.1400000 -22.2940000   8.2540000
 -12.9710000 -24.4530000   8.0420000 -13.8790000 -24.4500000   7.4210000
 -11.7350000 -24.5410000   7.1380000 -10.8260000 -24.5440000   7.7580000
 -11.7780000 -25.4670000   6.5470000 -11.7130000 -23.6750000   6.4600000
 -13.1600000 -25.7760000   8.8120000 -14.1270000 -25.7610000   9.3370000
 -13.1410000 -26.6180000   8.1050000 -12.3480000 -25.8940000   9.5440000
 -14.2650000 -23.1640000   9.7550000 -14.2110000 -23.3980000  10.9630000
 -15.4000000 -22.9140000   9.0840000 -15.3370000 -22.7510000   8.0990000
 -16.7160000 -22.8680000   9.7090000 -17.2140000 -23.8410000   9.5850000
 -16.6040000 -22.6490000  10.7810000 -17.5820000 -21.7790000   9.0650000
 -17.1180000 -20.9780000   8.2530000 -18.8640000 -21.7670000   9.4650000
 -19.1070000 -22.4950000  10.1050000 -19.9180000 -20.8500000   9.0230000
 -20.0400000 -20.9620000   7.9360000 -21.2240000 -21.2720000   9.7090000
 -21.1200000 -21.1570000  10.7980000 -22.0490000 -20.6380000   9.3510000
 -21.4410000 -22.3240000   9.4710000 -19.6270000 -19.3670000   9.3070000
 -18.7960000 -19.0540000  10.1590000 -20.3360000 -18.4820000   8.5890000
 -20.9120000 -18.8610000   7.8650000 -20.2330000 -17.0270000   8.7040000
 -19.1820000 -16.7160000   8.6050000 -21.0600000 -16.3400000   7.5850000
 -20.7860000 -16.8490000   6.6490000 -22.1150000 -16.5470000   7.8190000
 -20.8590000 -14.8270000   7.4220000 -20.0340000 -14.2380000   8.1510000
 -21.5510000 -14.2670000   6.5470000 -20.6220000 -16.5490000  10.1200000
 -21.7690000 -16.7290000  10.5330000 -19.6480000 -15.9440000  10.8180000
 -18.7300000 -15.9470000  10.4220000 -19.8430000 -15.2880000  12.1070000
 -19.1280000 -14.4540000  12.1730000 -20.8690000 -14.8920000  12.1320000
 -19.6370000 -16.2170000  13.3080000 -20.0510000 -15.8450000  14.4050000
 -19.0240000 -17.4040000  13.1400000 -18.8300000 -17.7100000  12.2080000
 -18.7020000 -18.3110000  14.2530000 -19.4440000 -18.3420000  15.0650000
 -18.4170000 -19.7620000  13.7850000 -18.1150000 -20.3560000  14.6600000
 -19.6500000 -20.4000000  13.1350000 -19.9520000 -19.8070000  12.2590000
 -19.4090000 -21.4250000  12.8170000 -20.4750000 -20.4260000  13.8620000
 -17.1590000 -19.9190000  12.9130000 -16.2760000 -19.5880000  13.4790000
 -17.0380000 -20.9750000  12.6300000 -17.2630000 -19.3060000  12.0050000
 -17.5140000 -17.8390000  15.1180000 -17.3910000 -18.3100000  16.2490000
 -16.7000000 -16.9050000  14.5970000 -16.8550000 -16.6240000  13.6500000
 -15.6090000 -16.2820000  15.3320000 -15.6080000 -15.2030000  15.1160000
 -15.7730000 -16.4400000  16.4080000 -14.2490000 -16.8690000  14.9440000
 -13.3820000 -16.9660000  15.8110000 -14.0550000 -17.2550000  13.6670000
 -14.8460000 -17.2080000  13.0560000 -12.7830000 -17.7620000  13.1240000
 -12.4630000 -18.6500000  13.6890000 -12.9510000 -18.1550000  11.6410000
 -13.1900000 -17.2340000  11.0900000 -11.9800000 -18.5440000  11.3000000
 -14.0400000 -19.2020000  11.3820000 -13.7920000 -20.0930000  11.9770000
 -14.9940000 -18.7810000  11.7320000 -14.1660000 -19.5940000   9.9040000
 -13.1590000 -19.8850000   9.5700000 -14.8310000 -20.4700000   9.8680000
 -14.7140000 -18.4980000   8.9820000 -14.1010000 -17.5940000   9.1130000
 -14.6350000 -18.8460000   7.9420000 -16.1140000 -18.1870000   9.2880000
 -16.1820000 -17.8380000  10.2230000 -16.4490000 -17.4950000   8.6480000
 -16.6660000 -19.0160000   9.2010000 -11.6480000 -16.7360000  13.2300000
 -10.5490000 -17.0930000  13.6650000 -11.9500000 -15.4860000  12.8450000
 -12.8550000 -15.3420000  12.4440000 -11.0270000 -14.3510000  12.8980000
 -10.0590000 -14.6390000  12.4630000 -11.5890000 -13.1580000  12.1030000
 -12.6020000 -12.9260000  12.4630000 -10.9380000 -12.2830000  12.2500000
 -11.6400000 -13.4770000  10.7400000 -12.0050000 -12.6990000  10.2290000
 -10.7060000 -13.9330000  14.3300000  -9.5370000 -13.6980000  14.6230000
 -11.7370000 -13.8930000  15.1890000 -12.6580000 -14.0020000  14.8140000
 -11.6010000 -13.5850000  16.6040000 -11.0710000 -12.6220000  16.6580000
 -12.9890000 -13.4170000  17.2340000 -13.5290000 -14.3750000  17.1950000
 -12.8810000 -13.1000000  18.2820000 -13.5550000 -12.6550000  16.6780000
 -10.7470000 -14.6090000  17.3760000  -9.9360000 -14.1930000  18.2010000
 -10.9050000 -15.9150000  17.0780000 -11.6590000 -16.1510000  16.4650000
 -10.0840000 -17.0070000  17.6260000 -10.1010000 -16.9760000  18.7250000
 -10.6400000 -18.3730000  17.1610000 -11.0010000 -18.1730000  16.1410000
  -9.8330000 -19.1200000  17.1240000 -11.7970000 -18.9120000  18.0180000
 -12.5510000 -18.1210000  18.1440000 -12.4420000 -20.1290000  17.3360000
 -11.6890000 -20.9210000  17.2100000 -13.2670000 -20.5040000  17.9590000
 -12.8320000 -19.8340000  16.3510000 -11.3320000 -19.2510000  19.4480000
 -10.9350000 -18.3450000  19.9290000 -12.1840000 -19.6320000  20.0300000
 -10.5450000 -20.0180000  19.4060000  -8.6080000 -16.8990000  17.2280000
  -7.7450000 -17.0810000  18.0860000  -8.3580000 -16.6070000  15.9410000
  -9.1340000 -16.5380000  15.3140000  -7.0120000 -16.4640000  15.3950000
  -6.3960000 -17.3070000  15.7410000  -6.9940000 -16.4410000  13.8440000
  -7.5620000 -15.5550000  13.5250000  -5.5830000 -16.3910000  13.2360000
  -5.0150000 -17.2770000  13.5540000  -5.6570000 -16.3770000  12.1390000
  -5.0670000 -15.4820000  13.5800000  -7.6260000 -17.6040000  13.3470000
  -7.6140000 -17.5880000  12.3470000  -6.3090000 -15.2050000  15.9350000
  -5.2230000 -15.3280000  16.4860000  -6.9570000 -14.0320000  15.8420000
  -7.8170000 -14.0260000  15.3310000  -6.4250000 -12.7520000  16.3250000
  -5.3720000 -12.6020000  16.0440000  -7.2780000 -11.5550000  15.8030000
  -8.3280000 -11.8050000  16.0130000  -6.9410000 -10.1810000  16.4260000
  -5.8910000  -9.9300000  16.2160000  -7.5950000  -9.4110000  15.9920000
  -7.0960000 -10.2230000  17.5140000  -7.1950000 -11.4500000  14.2600000
  -6.2440000 -10.9550000  14.0160000  -7.1870000 -12.4750000  13.8610000
  -8.3570000 -10.6650000  13.6310000  -8.3650000  -9.6390000  14.0290000
  -8.2300000 -10.6330000  12.5390000  -9.3090000 -11.1600000  13.8740000
  -6.2620000 -12.6950000  17.8640000  -5.3640000 -11.9990000  18.3320000
  -7.0520000 -13.4800000  18.6220000  -7.8850000 -13.8420000  18.2040000
  -6.8420000 -13.6980000  20.0560000  -6.6400000 -12.7360000  20.5500000
  -8.0950000 -14.3350000  20.7050000  -8.9110000 -13.6130000  20.5510000
  -8.3000000 -15.2470000  20.1260000  -7.9980000 -14.6890000  22.2070000
  -8.9690000 -15.1010000  22.5200000  -7.2180000 -15.4550000  22.3320000
  -7.6600000 -13.4940000  23.1050000  -6.5250000 -13.3440000  23.5490000
  -8.6420000 -12.6380000  23.3850000  -8.4600000 -11.8460000  23.9680000
  -9.5570000 -12.7910000  23.0110000  -5.5460000 -14.4800000  20.3350000
  -4.7310000 -13.9950000  21.1160000  -5.3520000 -15.6350000  19.6680000
  -6.1100000 -15.9750000  19.1110000  -4.1420000 -16.4640000  19.7790000
  -4.0060000 -16.7950000  20.8190000  -4.2720000 -17.7160000  18.8740000
  -5.1820000 -18.1820000  19.2800000  -4.4410000 -17.4370000  17.8230000
  -3.0930000 -18.7220000  18.9600000  -2.1540000 -18.1500000  19.0020000
  -3.1990000 -19.6250000  20.1990000  -4.1380000 -20.1970000  20.1570000
  -2.3470000 -20.3200000  20.2210000  -3.1890000 -19.0040000  21.1070000
  -2.9300000 -19.5430000  17.6710000  -2.7370000 -18.8660000  16.8260000
  -2.0850000 -20.2380000  17.7830000  -3.8500000 -20.1140000  17.4800000
  -2.8500000 -15.6860000  19.4540000  -1.8860000 -15.7710000  20.2150000
  -2.8680000 -14.9650000  18.3220000  -3.7400000 -14.9150000  17.8350000
  -1.7090000 -14.3000000  17.7360000  -0.7350000 -14.7820000  17.9080000
  -1.9100000 -14.0640000  16.2060000  -2.8450000 -13.4970000  16.0900000
  -0.7550000 -13.3000000  15.5170000   0.1800000 -13.8670000  15.6320000
  -0.9810000 -13.1800000  14.4470000  -0.6420000 -12.3090000  15.9810000
  -2.2850000 -15.3520000  15.4190000  -3.0430000 -15.8580000  16.0360000
  -2.7490000 -14.9970000  14.4870000  -1.1620000 -16.3340000  15.0860000
  -0.6980000 -16.6900000  16.0170000  -1.5750000 -17.1900000  14.5320000
  -0.4040000 -15.8300000  14.4690000  -1.4070000 -12.9480000  18.4200000
  -0.2580000 -12.7240000  18.7970000  -2.4220000 -12.0720000  18.5470000
  -3.3380000 -12.3910000  18.3020000  -2.2500000 -10.6580000  18.9120000
  -1.1810000 -10.4010000  18.9390000  -2.9500000  -9.7580000  17.8630000
  -4.0270000  -9.9770000  17.9100000  -2.7750000  -8.7130000  18.1600000
  -2.4430000  -9.9750000  16.4190000  -1.3710000  -9.7280000  16.4120000
  -2.5740000 -11.0410000  16.1800000  -3.1450000  -9.1410000  15.3410000
  -3.8300000  -8.0570000  15.7050000  -3.0620000  -9.4810000  14.1630000
  -3.5140000  -8.9400000  13.4540000  -2.5420000 -10.2980000  13.9140000
  -2.7220000 -10.3150000  20.3410000  -2.5300000  -9.1720000  20.7540000
  -3.2890000 -11.2840000  21.0850000  -3.5840000 -12.0920000  20.5740000
  -3.6550000 -11.1860000  22.5120000  -4.1330000 -12.1240000  22.8310000
  -2.4030000 -10.9380000  23.4030000  -1.9290000 -10.0130000  23.0440000
  -2.7200000 -10.8050000  24.4480000  -1.3760000 -12.0690000  23.3440000
  -1.6780000 -13.1960000  23.7250000  -0.1530000 -11.7770000  22.8970000
   0.5420000 -12.4940000  22.8460000   0.0630000 -10.8420000  22.6150000
  -4.7900000 -10.1810000  22.8150000  -4.8180000  -9.6250000  23.9140000
  -5.7290000  -9.9900000  21.8730000  -5.5750000 -10.3940000  20.9600000
  -6.9070000  -9.1390000  22.0660000  -7.1940000  -9.1410000  23.1180000
  -6.6050000  -7.6840000  21.6390000  -7.4490000  -7.0710000  21.9560000
  -5.6960000  -7.3270000  22.1220000  -6.4300000  -7.4450000  20.1580000
  -7.4820000  -7.1230000  19.3140000  -6.9720000  -6.9620000  18.0910000
  -7.6870000  -6.7100000  17.3070000  -5.6580000  -7.1410000  18.0460000
  -5.0110000  -7.0840000  17.2730000  -5.3080000  -7.4450000  19.3630000
  -4.2660000  -7.6380000  19.6190000  -8.1210000  -9.7170000  21.3350000
  -7.9590000 -10.4180000  20.3360000  -9.3150000  -9.3710000  21.8410000
  -9.3120000  -8.8870000  22.7160000 -10.6010000  -9.6970000  21.2350000
 -10.5160000 -10.6030000  20.6170000 -11.6330000  -9.9540000  22.3470000
 -11.3320000 -10.8370000  22.9290000 -11.6780000  -9.0770000  23.0090000
 -13.0550000 -10.2120000  21.8670000 -13.3260000 -11.2910000  20.9980000
 -12.5080000 -11.9420000  20.6560000 -14.6250000 -11.5300000  20.5750000
 -14.8320000 -12.3700000  19.8960000 -15.6620000 -10.7130000  21.0050000
 -16.6890000 -10.9190000  20.6700000 -15.4100000  -9.6430000  21.8510000
 -16.2410000  -9.0000000  22.1780000 -14.1170000  -9.3820000  22.2850000
 -13.9220000  -8.5300000  22.9530000 -11.0640000  -8.5700000  20.3020000
 -11.1900000  -7.4310000  20.7510000 -11.3610000  -8.9240000  19.0440000
 -11.1090000  -9.8470000  18.7520000 -12.0090000  -8.0450000  18.0760000
 -11.7590000  -6.9860000  18.2380000 -11.6200000  -8.4300000  16.6190000
 -11.7930000  -9.5110000  16.5100000 -12.4170000  -7.6720000  15.5400000
 -12.2450000  -6.5910000  15.6480000 -12.0860000  -7.9980000  14.5430000
 -13.4900000  -7.8860000  15.6580000 -10.1170000  -8.2210000  16.3740000
  -9.5410000  -8.8490000  17.0690000  -9.8720000  -8.5000000  15.3390000
  -9.8620000  -7.1640000  16.5380000 -13.5350000  -8.1570000  18.2560000
 -14.1160000  -9.1810000  17.8930000 -14.1400000  -7.1010000  18.8250000
 -13.5350000  -6.3840000  19.1720000 -15.5840000  -6.9590000  19.0440000
 -16.0000000  -7.8970000  19.4420000 -15.8550000  -5.8280000  20.0630000
 -15.1780000  -5.9380000  20.9230000 -15.6070000  -4.9060000  19.5170000
 -17.3020000  -5.7540000  20.5590000 -17.7550000  -6.7600000  21.1510000
 -17.9070000  -4.6730000  20.3960000 -16.3540000  -6.7100000  17.7240000
 -17.5210000  -7.0870000  17.6210000 -15.6740000  -6.0940000  16.7430000
 -14.7430000  -5.8210000  16.9850000 -16.1740000  -5.7520000  15.4110000
 -17.1280000  -5.2100000  15.4910000 -15.1470000  -4.8430000  14.6850000
 -14.2060000  -5.4120000  14.6590000 -15.5280000  -4.7180000  13.6610000
 -14.8910000  -3.4520000  15.3140000 -14.3190000  -2.8530000  14.5910000
 -15.8890000  -3.0090000  15.4480000 -14.1550000  -3.4700000  16.6580000
 -14.6540000  -2.8090000  17.5950000 -13.1210000  -4.1710000  16.7460000
 -16.4630000  -7.0030000  14.5610000 -15.8990000  -8.0670000  14.8180000
 -17.3120000  -6.8300000  13.5380000 -17.7910000  -5.9540000  13.4880000
 -17.6200000  -7.8470000  12.5370000 -17.1250000  -8.7970000  12.7880000
 -19.1490000  -8.0790000  12.5050000 -19.4750000  -8.0170000  13.5540000
 -19.5810000  -7.2410000  11.9380000 -19.6220000  -9.3980000  11.9030000
 -19.2290000  -9.8130000  10.6080000 -18.5570000  -9.1760000  10.0140000
 -19.6930000 -11.0320000  10.0780000 -19.3590000 -11.3650000   9.0840000
 -20.5730000 -11.8330000  10.8300000 -21.0670000 -12.9920000  10.3150000
 -20.7380000 -13.1800000   9.3900000 -20.9640000 -11.4330000  12.1190000
 -21.6400000 -12.0680000  12.7100000 -20.4900000 -10.2210000  12.6530000
 -20.7960000  -9.9080000  13.6620000 -17.0580000  -7.3440000  11.1990000
 -17.6860000  -6.5130000  10.5420000 -15.8790000  -7.8660000  10.8340000
 -15.4390000  -8.4680000  11.5000000 -15.1900000  -7.6100000   9.5740000
 -15.7500000  -6.8720000   8.9810000 -13.7720000  -7.0480000   9.8520000
 -13.8550000  -6.1650000  10.5030000 -13.2630000  -7.8570000  10.3960000
 -12.9630000  -6.6850000   8.5990000 -13.5880000  -6.4470000   7.5410000
 -11.7250000  -6.5930000   8.7440000 -15.1370000  -8.9650000   8.8310000
 -14.3840000  -9.8380000   9.2700000 -15.9470000  -9.1510000   7.7600000
 -16.9030000  -8.1940000   7.1980000 -16.3760000  -7.2460000   7.0120000
 -17.7030000  -8.0300000   7.9350000 -17.4180000  -8.8400000   5.9150000
 -16.8180000  -8.5210000   5.0500000 -18.4730000  -8.5800000   5.7440000
 -17.2630000 -10.3280000   6.1790000 -17.1210000 -10.8820000   5.2390000
 -18.1270000 -10.7420000   6.7200000 -16.0000000 -10.4380000   7.0470000
 -16.1350000 -11.2320000   7.7960000 -14.7290000 -10.7190000   6.2270000
 -14.3210000  -9.8670000   5.4340000 -14.1120000 -11.8890000   6.4600000
 -14.5690000 -12.5330000   7.0740000 -12.8320000 -12.2880000   5.8600000
 -12.1360000 -11.4400000   5.7840000 -12.1600000 -13.4080000   6.7020000
 -12.8470000 -14.2660000   6.6660000 -10.7580000 -13.8550000   6.2530000
 -10.0700000 -12.9970000   6.2890000 -10.3930000 -14.6460000   6.9240000
 -10.8070000 -14.2420000   5.2240000 -12.0750000 -12.9780000   8.0490000
 -11.6440000 -13.6920000   8.6000000 -13.0210000 -12.8450000   4.4410000
 -13.9480000 -13.6250000   4.2240000 -12.1100000 -12.4850000   3.5260000
 -11.5110000 -11.7130000   3.7400000 -11.9690000 -13.1320000   2.2200000
 -12.9100000 -13.6080000   1.9070000 -11.4900000 -12.1530000   1.1110000
 -10.5690000 -11.6680000   1.4670000 -11.2110000 -12.8590000  -0.2390000
 -12.1310000 -13.3440000  -0.5960000 -10.8770000 -12.1170000  -0.9800000
 -10.4270000 -13.6180000  -0.1020000 -12.5080000 -11.0040000   0.9190000
 -13.4240000 -11.4500000   0.5040000 -12.7210000 -10.5910000   1.9160000
 -12.0230000  -9.8790000  -0.0070000 -11.8100000 -10.2910000  -1.0050000
 -12.8030000  -9.1080000  -0.0880000 -11.1070000  -9.4320000   0.4070000
 -10.9650000 -14.2850000   2.3860000 -11.3590000 -15.4420000   2.2540000
  -9.7170000 -13.9360000   2.7540000  -9.4660000 -12.9780000   2.6130000
  -8.6950000 -14.8540000   3.2510000  -9.0910000 -15.3910000   4.1260000
  -8.2760000 -15.8890000   2.1850000  -9.1900000 -16.2870000   1.7210000
  -7.6760000 -15.3680000   1.4240000  -7.4580000 -17.0460000   2.7770000
  -6.4940000 -16.6640000   3.1440000  -8.0260000 -17.4730000   3.6170000
  -7.2100000 -18.1240000   1.7330000  -8.0430000 -19.0530000   1.6520000
  -6.1950000 -17.9960000   1.0160000  -7.4910000 -14.0470000   3.7590000
  -7.0020000 -13.1700000   3.0470000  -7.0180000 -14.3970000   4.9630000
  -7.5780000 -15.0490000   5.4740000  -5.8070000 -13.8710000   5.6020000
  -5.1630000 -13.4380000   4.8230000  -6.1000000 -12.7820000   6.6630000
  -6.7370000 -13.2520000   7.4270000  -5.1420000 -12.4870000   7.1160000
  -6.8020000 -11.5440000   6.1060000  -6.0850000 -10.7100000   5.5120000
  -8.0330000 -11.4340000   6.2890000  -5.0310000 -15.0270000   6.2410000
  -5.6450000 -16.0070000   6.6550000  -3.7010000 -14.8820000   6.3450000
  -3.2680000 -14.1470000   5.8220000  -2.8400000 -15.8090000   7.0830000
  -3.4560000 -16.5650000   7.5930000  -1.8720000 -16.5290000   6.1200000
  -1.5320000 -17.4500000   6.6170000  -2.4370000 -16.7890000   5.2130000
  -0.7490000 -15.7420000   5.7660000  -0.1610000 -16.2600000   5.1440000
  -2.1210000 -15.0720000   8.2200000  -1.8420000 -13.8770000   8.1090000
  -1.8410000 -15.8230000   9.2930000  -2.1240000 -16.7810000   9.2440000
  -1.1820000 -15.3570000  10.5080000  -0.7070000 -14.3810000  10.3320000
  -2.2220000 -15.2030000  11.6350000  -2.6740000 -16.1940000  11.7900000
  -1.6490000 -14.9180000  12.5290000  -3.3190000 -14.1790000  11.3890000
  -4.4710000 -14.5370000  10.6560000  -4.5640000 -15.5550000  10.2500000
  -5.4970000 -13.5990000  10.4430000  -6.3960000 -13.8860000   9.8780000
  -5.3750000 -12.2950000  10.9570000  -6.3710000 -11.3910000  10.7360000
  -7.1280000 -11.7670000  10.2020000  -4.2270000 -11.9310000  11.6900000
  -4.1320000 -10.9120000  12.0940000  -3.2010000 -12.8720000  11.9060000
  -2.3060000 -12.5880000  12.4790000  -0.1070000 -16.3720000  10.9130000
  -0.2680000 -17.5650000  10.6550000   0.9600000 -15.8790000  11.5600000
   1.0020000 -14.8900000  11.7000000   2.0990000 -16.6890000  11.9930000
   1.8980000 -17.7530000  11.8010000   3.3680000 -16.2780000  11.2160000
   4.1860000 -16.9150000  11.5840000   3.1780000 -16.5030000  10.1560000
   3.7640000 -14.7990000  11.3630000   3.0370000 -14.2030000  10.7920000
   3.6920000 -14.5410000  12.4300000   5.1790000 -14.4980000  10.8590000
   5.8810000 -15.2460000  11.2560000   5.1950000 -14.5270000   9.7600000
   5.6110000 -13.1650000  11.3010000   5.6180000 -12.4480000  10.6040000
   6.0000000 -12.8490000  12.5500000   6.0800000 -13.7760000  13.5170000
   5.8470000 -14.7270000  13.3140000   6.3720000 -13.5120000  14.4360000
   6.3040000 -11.5780000  12.8360000   6.2400000 -10.8790000  12.1230000
   6.5940000 -11.3320000  13.7610000   2.3000000 -16.5780000  13.5130000
   2.1240000 -15.4970000  14.0760000   2.7150000 -17.6920000  14.1380000
   2.7070000 -18.5460000  13.6180000   3.0720000 -17.7460000  15.5530000
   3.5910000 -16.8200000  15.8420000   1.8090000 -17.8960000  16.4250000
   1.1680000 -17.0300000  16.2030000   1.3060000 -18.8170000  16.0960000
   2.0680000 -17.9660000  17.9390000   2.5940000 -18.9060000  18.1620000
   2.7020000 -17.1150000  18.2260000   0.7540000 -17.9150000  18.7310000
   0.2250000 -17.0000000  18.4250000   0.1630000 -18.7950000  18.4370000
   0.9430000 -17.9120000  20.2510000  -0.0530000 -17.9090000  20.7170000
   1.4750000 -18.8340000  20.5300000   1.7080000 -16.7440000  20.7190000
   1.8730000 -16.1240000  19.9520000   1.1880000 -16.2660000  21.4270000
   2.5830000 -17.0480000  21.0960000   4.0910000 -18.8580000  15.8050000
   3.7670000 -20.0300000  15.6260000   5.2830000 -18.4610000  16.2720000
   5.5100000 -17.4900000  16.1910000   6.2900000 -19.3630000  16.8180000
   6.2450000 -20.3420000  16.3180000   7.6850000 -18.7550000  16.5830000
   7.8270000 -18.6720000  15.4950000   7.6840000 -17.7500000  17.0290000
   8.8350000 -19.5860000  17.1910000   8.7300000 -19.5630000  18.2860000
   8.7200000 -20.6200000  16.8340000  10.2380000 -19.0950000  16.8240000
  10.4210000 -18.5290000  15.6290000  11.1590000 -19.2360000  17.6250000
  12.0790000 -18.9230000  17.3890000  10.9890000 -19.6640000  18.5120000
   5.9880000 -19.6090000  18.3030000   5.9230000 -18.6490000  19.0700000
   5.8210000 -20.8860000  18.6720000   5.9120000 -21.5860000  17.9640000
   5.4660000 -21.3100000  20.0230000   5.9550000 -20.7440000  20.8290000
   3.9220000 -21.2490000  20.2380000   3.6220000 -20.2000000  20.0960000
   3.1030000 -22.1510000  19.2900000   3.4030000 -23.2000000  19.4310000
   2.0320000 -22.0420000  19.5140000   3.2910000 -21.8540000  18.2480000
   3.5060000 -21.5180000  21.6930000   3.9640000 -20.7650000  22.3510000
   2.4110000 -21.4610000  21.7790000   3.8450000 -22.5210000  21.9930000
   5.9910000 -22.7320000  20.2760000   5.8970000 -23.5800000  19.3900000
   6.5360000 -22.9730000  21.4790000   6.6260000 -22.2160000  22.1260000
   7.0490000 -24.2850000  21.8720000   7.4460000 -24.8370000  21.0070000
   8.1630000 -24.1850000  22.9530000   7.7420000 -23.6380000  23.8100000
   8.6880000 -25.5580000  23.4260000   9.1090000 -26.1050000  22.5690000
   9.4690000 -25.4110000  24.1860000   7.8600000 -26.1380000  23.8600000
   9.3470000 -23.3400000  22.4460000   8.9970000 -22.3260000  22.2050000
  10.1200000 -23.2850000  23.2270000   9.7710000 -23.8050000  21.5440000
   5.8930000 -25.1560000  22.3980000   5.2380000 -24.7710000  23.3680000
   5.6740000 -26.3030000  21.7380000   6.2490000 -26.4760000  20.9380000
   4.6700000 -27.3020000  22.1000000   4.2260000 -27.0980000  23.0860000
   3.5340000 -27.4230000  21.0320000   4.0150000 -27.5780000  20.0550000
   2.5440000 -28.5830000  21.3100000   2.0620000 -28.4290000  22.2870000
   1.7760000 -28.6070000  20.5230000   3.0900000 -29.5380000  21.3180000
   2.7570000 -26.0930000  20.8690000   2.0680000 -26.0130000  21.7230000
   3.4950000 -25.2780000  20.9160000   1.9630000 -25.9880000  19.5590000
   1.2250000 -26.8020000  19.5110000   1.4430000 -25.0190000  19.5220000
   2.6520000 -26.0670000  18.7050000   5.4060000 -28.6470000  22.2170000
   5.8770000 -29.1710000  21.2070000   5.4930000 -29.1660000  23.4540000
   5.2450000 -28.5380000  24.1920000   6.0970000 -30.4610000  23.8120000
   6.1690000 -30.5160000  24.9080000   5.2880000 -31.6870000  23.3060000
   5.4750000 -31.6980000  22.2220000   5.6930000 -32.6050000  23.7560000
   3.7780000 -31.6140000  23.5640000   3.3760000 -31.0370000  24.5980000
   3.0330000 -32.2020000  22.7510000   7.5990000 -30.5580000  23.4590000
   8.0670000 -31.6140000  23.0320000   8.3250000 -29.4430000  23.6470000
   7.8310000 -28.6360000  23.9710000   9.7660000 -29.3280000  23.4150000
  10.1470000 -28.5230000  24.0600000  10.2310000 -30.2820000  23.7060000
  10.1350000 -29.0160000  21.9520000  11.3130000 -28.7750000  21.6870000
   9.1680000 -28.9940000  21.0160000   8.2490000 -29.2600000  21.3060000
   9.3780000 -28.6470000  19.6090000  10.4450000 -28.7190000  19.3500000
   8.5870000 -29.6330000  18.7220000   8.9610000 -30.6420000  18.9510000
   7.5310000 -29.5570000  19.0210000   8.7130000 -29.3690000  17.2040000
   8.3840000 -28.3390000  17.0000000   9.7740000 -29.4750000  16.9330000
   7.8770000 -30.3420000  16.3790000   6.6490000 -30.3790000  16.6070000
   8.4670000 -31.0340000  15.5220000   8.9300000 -27.2010000  19.3570000
   7.8130000 -26.8470000  19.7320000   9.7820000 -26.4240000  18.6700000
  10.6870000 -26.8030000  18.4790000   9.4850000 -25.0680000  18.2050000
   8.9670000 -24.4970000  18.9890000  10.7900000 -24.3180000  17.8250000
  11.2590000 -24.8880000  17.0100000  10.5850000 -22.8600000  17.3790000
  10.1160000 -22.2890000  18.1930000  11.5590000 -22.4120000  17.1310000
   9.9340000 -22.8350000  16.4930000  11.6590000 -24.3140000  18.9410000
  12.5030000 -23.8330000  18.7040000   8.5520000 -25.1250000  16.9760000
   8.9860000 -25.5140000  15.8930000   7.2710000 -24.7890000  17.1840000
   7.0300000 -24.4170000  18.0800000   6.2040000 -24.9790000  16.2030000
   6.5540000 -25.6530000  15.4080000   4.9500000 -25.5950000  16.8530000
   4.5850000 -24.9970000  17.7010000   4.1350000 -25.7400000  16.1290000
   5.3270000 -27.2380000  17.5220000   4.1330000 -27.4760000  17.9760000
   5.8670000 -23.6290000  15.5530000   5.3300000 -22.7510000  16.2280000
   6.1820000 -23.5020000  14.2540000   6.7010000 -24.2550000  13.8500000
   5.8770000 -22.3400000  13.4150000   5.8640000 -21.4240000  14.0230000
   6.9640000 -22.1910000  12.3190000   7.2620000 -23.2370000  12.1520000
   6.5320000 -21.7820000  11.3940000   8.2020000 -21.3620000  12.7180000
   7.8880000 -20.3090000  12.7770000   8.8190000 -21.7860000  14.0560000
   9.1340000 -22.8380000  13.9980000   9.6930000 -21.1540000  14.2740000
   8.0740000 -21.6700000  14.8570000   9.2560000 -21.3740000  11.5960000
   8.8230000 -20.9440000  10.6810000  10.1270000 -20.7770000  11.9040000
   9.5720000 -22.4090000  11.4000000   4.4730000 -22.5280000  12.8180000
   4.3300000 -23.0770000  11.7250000   3.4540000 -22.0900000  13.5720000
   3.6810000 -21.6810000  14.4560000   2.0450000 -22.2090000  13.2050000
   1.8440000 -23.2200000  12.8210000   1.1410000 -21.9600000  14.4360000
   1.2790000 -20.8820000  14.6050000   0.0890000 -22.1600000  14.1860000
   1.5200000 -22.7320000  15.7160000   2.4810000 -22.3500000  16.0910000
   0.4400000 -22.5540000  16.7960000  -0.5210000 -22.9360000  16.4210000
   0.7290000 -23.1110000  17.6990000   0.3380000 -21.4870000  17.0410000
   1.8100000 -24.2150000  15.4560000   2.6480000 -24.3070000  14.7500000
   2.0730000 -24.7100000  16.4030000   0.9170000 -24.6940000  15.0290000
   1.7130000 -21.2130000  12.0900000   1.7770000 -20.0120000  12.3320000
   1.3740000 -21.7330000  10.9030000   1.4400000 -22.7270000  10.8210000
   0.9930000 -20.9650000   9.7220000   1.2080000 -19.8980000   9.8780000
   1.7980000 -21.4580000   8.4950000   2.8650000 -21.4110000   8.7580000
   1.5000000 -22.5080000   8.3610000   1.5590000 -20.6890000   7.1910000
   0.9040000 -19.6240000   7.2210000   2.0750000 -21.1750000   6.1600000
  -0.5270000 -21.1320000   9.5810000  -0.9860000 -22.0760000   8.9440000
  -1.2700000 -20.2420000  10.2510000  -0.7910000 -19.4600000  10.6500000
  -2.7110000 -20.3450000  10.4500000  -3.0640000 -21.3800000  10.3360000
  -3.1160000 -19.8100000  11.8570000  -2.6960000 -18.7980000  11.9570000
  -4.6440000 -19.7580000  12.0860000  -5.0650000 -20.7690000  11.9870000
  -4.8510000 -19.3720000  13.0950000  -5.1050000 -19.0950000  11.3390000
  -2.4630000 -20.6480000  12.9800000  -3.1380000 -21.4910000  13.1910000
  -1.5100000 -21.0320000  12.5860000  -2.2040000 -19.8660000  14.2710000
  -3.1570000 -19.4830000  14.6660000  -1.7410000 -20.5300000  15.0160000
  -1.5290000 -19.0230000  14.0610000  -3.4490000 -19.5390000   9.3730000
  -3.3790000 -18.3100000   9.3840000  -4.1590000 -20.2490000   8.4840000
  -4.0500000 -21.2430000   8.4890000  -5.0300000 -19.6540000   7.4770000
  -4.6380000 -18.6740000   7.1660000  -5.0950000 -20.5730000   6.2420000
  -4.0390000 -20.8150000   6.0500000  -5.6470000 -21.4960000   6.4710000
  -5.7050000 -19.9070000   4.9900000  -6.6840000 -19.4840000   5.2580000
  -4.7900000 -18.7850000   4.4550000  -3.8100000 -19.2070000   4.1870000
  -5.2490000 -18.3300000   3.5650000  -4.6580000 -18.0170000   5.2320000
  -6.0060000 -20.9650000   3.9150000  -6.7200000 -21.7010000   4.3140000
  -6.4400000 -20.4770000   3.0300000  -5.0740000 -21.4750000   3.6320000
  -6.4240000 -19.4110000   8.0720000  -7.0710000 -20.3500000   8.5310000
  -6.8610000 -18.1510000   8.0180000  -6.1940000 -17.4730000   7.7100000
  -8.1840000 -17.6890000   8.4050000  -8.6940000 -18.4470000   9.0180000
  -8.0410000 -16.3990000   9.2360000  -7.3730000 -16.6070000  10.0850000
  -7.5520000 -15.6930000   8.5490000  -9.3410000 -15.7900000   9.7500000
 -10.3780000 -16.4930000   9.8030000  -9.2500000 -14.6100000  10.1410000
  -8.9740000 -17.4800000   7.1030000  -8.5580000 -16.6910000   6.2550000
 -10.0730000 -18.2310000   6.9610000 -10.3860000 -18.7350000   7.7660000
 -10.8270000 -18.3760000   5.7150000 -10.3450000 -17.8900000   4.8540000
 -11.0080000 -19.8880000   5.3940000 -11.4930000 -19.9660000   4.4100000
  -9.6780000 -20.6600000   5.3710000  -9.1920000 -20.5830000   6.3550000
  -9.8720000 -21.7180000   5.1400000  -9.0180000 -20.2320000   4.6020000
 -11.8910000 -20.5400000   6.2860000 -11.9680000 -21.5040000   6.0330000
 -12.2140000 -17.7060000   5.8200000 -12.6420000 -17.3390000   6.9140000
 -12.8830000 -17.5490000   4.6650000 -12.4190000 -17.8340000   3.8260000
 -14.2320000 -16.9920000   4.5560000 -14.3300000 -16.0980000   5.1900000
 -14.4810000 -16.5870000   3.0940000 -14.3960000 -17.4730000   2.4480000
 -15.4900000 -16.1590000   2.9980000 -13.7350000 -15.8380000   2.7880000
 -15.3120000 -17.9990000   4.9740000 -15.2720000 -19.1430000   4.5260000
 -16.2950000 -17.5410000   5.7610000 -16.1850000 -16.6350000   6.1700000
 -17.5160000 -18.2910000   6.0540000 -17.3080000 -19.3680000   5.9660000
 -17.8420000 -18.0630000   7.0800000 -18.6410000 -17.9180000   5.0770000
 -19.6140000 -18.6640000   4.9870000 -18.5220000 -16.8040000   4.3310000
 -17.7930000 -16.1630000   4.5710000 -19.4220000 -16.4520000   3.2310000
 -20.4680000 -16.5250000   3.5620000 -19.1510000 -15.0050000   2.7680000
 -18.0630000 -14.8980000   2.6460000 -19.6440000 -14.8750000   1.7930000
 -19.6670000 -13.9320000   3.7530000 -20.7590000 -14.0380000   3.8290000
 -19.2100000 -14.1390000   4.7320000 -19.3410000 -12.4850000   3.3560000
 -18.4190000 -12.2730000   2.4140000 -19.9180000 -11.5510000   3.9070000
 -19.7000000 -10.6090000   3.6520000 -20.6050000 -11.7330000   4.6100000
 -19.2610000 -17.4310000   2.0560000 -18.1520000 -17.5660000   1.5360000
 -20.3780000 -18.0550000   1.6410000 -21.1870000 -17.9120000   2.2110000
 -20.4790000 -18.9890000   0.5080000 -19.7470000 -19.8030000   0.6160000
 -21.8990000 -19.6010000   0.4760000 -22.6060000 -18.7580000   0.4700000
 -21.9820000 -20.1550000  -0.4710000 -22.2320000 -20.5440000   1.6560000
 -22.0680000 -19.9840000   2.5880000 -23.2990000 -20.7920000   1.5610000
 -21.4080000 -21.8350000   1.6840000 -21.0290000 -22.3210000   0.5950000
 -21.1470000 -22.3210000   2.8060000 -20.1120000 -18.3820000  -0.8640000
 -19.8660000 -19.1350000  -1.8060000 -20.0220000 -17.0420000  -0.9260000
 -20.4030000 -16.5740000  -0.1290000 -19.4970000 -16.2290000  -2.0240000
 -20.1050000 -16.3370000  -2.9340000 -19.5590000 -14.7520000  -1.5590000
 -20.5960000 -14.5850000  -1.2330000 -18.8870000 -14.6840000  -0.6910000
 -19.1670000 -13.6790000  -2.5980000 -19.2380000 -12.7070000  -2.0870000
 -18.1230000 -13.8630000  -2.8930000 -20.0550000 -13.6650000  -3.8460000
 -19.5300000 -13.2480000  -4.9020000 -21.2390000 -14.0520000  -3.7330000
 -18.0660000 -16.6090000  -2.4610000 -17.7350000 -16.4280000  -3.6320000
 -17.2620000 -17.1280000  -1.5180000 -17.6620000 -17.2220000  -0.6060000
 -15.8540000 -17.4830000  -1.6970000 -15.5090000 -17.2280000  -2.7100000
 -15.0230000 -16.6770000  -0.6740000 -15.3570000 -16.9570000   0.3360000
 -13.9770000 -16.9890000  -0.8140000 -15.1280000 -15.1710000  -0.8420000
 -14.6460000 -14.5640000  -2.0210000 -14.1620000 -15.1790000  -2.7940000
 -14.7830000 -13.1760000  -2.2090000 -14.4250000 -12.7100000  -3.1390000
 -15.3870000 -12.3860000  -1.2130000 -15.5120000 -11.0390000  -1.3930000
 -15.1400000 -10.7260000  -2.2670000 -15.8520000 -12.9870000  -0.0270000
 -16.3140000 -12.3680000   0.7560000 -15.7270000 -14.3770000   0.1580000
 -16.0960000 -14.8440000   1.0830000 -15.6030000 -18.9970000  -1.5690000
 -14.4450000 -19.3910000  -1.4320000 -16.6630000 -19.8260000  -1.6290000
 -17.5640000 -19.3930000  -1.6680000 -16.5970000 -21.2840000  -1.4610000
 -16.0160000 -21.5320000  -0.5600000 -18.0180000 -21.8660000  -1.3080000
 -17.9240000 -22.8990000  -0.9410000 -18.5540000 -21.2600000  -0.5630000
 -18.7390000 -21.8620000  -2.5260000 -19.6490000 -22.2470000  -2.3760000
 -15.7650000 -22.0520000  -2.5110000 -15.3890000 -23.1880000  -2.2290000
 -15.4610000 -21.4340000  -3.6680000 -15.9230000 -20.5680000  -3.8560000
 -14.5750000 -21.9870000  -4.6980000 -14.8950000 -23.0260000  -4.8630000
 -14.7610000 -21.2030000  -6.0040000 -14.4360000 -20.1620000  -5.8570000
 -14.1580000 -21.6650000  -6.7990000 -15.8220000 -21.2180000  -6.2940000
 -13.0860000 -22.0210000  -4.2970000 -12.3380000 -22.8010000  -4.8850000
 -12.6830000 -21.2130000  -3.2990000 -13.3530000 -20.5550000  -2.9560000
 -11.3290000 -21.1900000  -2.7290000 -10.5790000 -21.2200000  -3.5330000
 -11.1250000 -19.8940000  -1.9130000 -11.8400000 -19.9290000  -1.0770000
 -10.0990000 -19.9260000  -1.5180000 -11.3280000 -18.5910000  -2.7060000
 -10.5460000 -18.5580000  -3.4790000 -12.3150000 -18.6560000  -3.1870000
 -11.2470000 -17.0740000  -1.7090000  -9.4870000 -17.0350000  -1.2830000
  -8.8880000 -16.9880000  -2.2040000  -9.2780000 -16.1500000  -0.6640000
  -9.2250000 -17.9440000  -0.7220000 -11.0140000 -22.4130000  -1.8410000
  -9.8400000 -22.6400000  -1.5480000 -12.0520000 -23.1550000  -1.4130000
 -12.9600000 -22.8480000  -1.6970000 -11.9600000 -24.2580000  -0.4560000
 -11.4270000 -23.9240000   0.4460000 -13.3610000 -24.7370000  -0.0490000
 -13.9080000 -24.9900000  -0.9690000 -13.2400000 -25.6410000   0.5660000
 -14.1500000 -23.6840000   0.7410000 -13.5400000 -23.3800000   1.6050000
 -14.3110000 -22.8170000   0.0840000 -15.5030000 -24.2110000   1.2310000
 -16.0280000 -24.7010000   0.3980000 -15.3400000 -24.9390000   2.0400000
 -16.3430000 -23.1230000   1.7400000 -15.8840000 -22.2420000   1.8540000
 -17.6420000 -23.2160000   2.0630000 -18.3070000 -24.3760000   1.9820000
 -17.8330000 -25.2010000   1.6740000 -19.2750000 -24.4130000   2.2300000
 -18.2860000 -22.1190000   2.4680000 -17.7970000 -21.2490000   2.5250000
 -19.2540000 -22.1720000   2.7130000 -11.0690000 -25.4230000  -0.8930000
 -10.2690000 -25.8560000  -0.0680000 -11.1830000 -25.8930000  -2.1490000
 -11.9360000 -25.5520000  -2.7110000 -10.3910000 -27.0230000  -2.6560000
 -10.5320000 -27.8630000  -1.9600000 -10.7580000 -27.4960000  -4.0830000
 -10.5730000 -26.6070000  -4.7040000 -10.0740000 -28.3030000  -4.3850000
 -12.2080000 -27.9590000  -4.2730000 -12.8810000 -28.2720000  -3.2660000
 -12.6010000 -28.0610000  -5.4560000  -8.8700000 -26.8450000  -2.5200000
  -8.2380000 -27.7080000  -1.9180000  -8.3030000 -25.7370000  -3.0270000
  -8.8650000 -25.0990000  -3.5530000  -6.8510000 -25.5280000  -3.0030000
  -6.3350000 -26.4650000  -3.2580000  -6.4440000 -24.4460000  -4.0280000
  -6.9100000 -24.7410000  -4.9800000  -6.8970000 -23.5080000  -3.6740000
  -4.9250000 -24.2370000  -4.2410000  -4.7910000 -23.5220000  -5.0670000
  -4.5160000 -23.8080000  -3.3140000  -4.1500000 -25.5170000  -4.5710000
  -3.2510000 -25.9090000  -3.8310000  -4.4970000 -26.1780000  -5.6770000
  -4.0150000 -27.0180000  -5.9270000  -5.2380000 -25.8310000  -6.2520000
  -6.2780000 -25.2820000  -1.5920000  -5.1800000 -25.7740000  -1.3270000
  -7.0550000 -24.6740000  -0.7060000  -7.9160000 -24.2670000  -1.0110000
  -6.6490000 -24.4740000   0.6750000  -5.5920000 -24.1760000   0.7450000
  -7.5100000 -23.3500000   1.2380000  -8.5640000 -23.5070000   0.9650000
  -7.4170000 -23.3150000   2.3340000  -7.0780000 -21.6870000   0.6410000
  -6.7200000 -25.7760000   1.4900000  -5.8810000 -25.9830000   2.3640000
  -7.6630000 -26.6620000   1.1480000  -8.3450000 -26.3580000   0.4830000
  -7.8520000 -27.9640000   1.7900000  -7.6760000 -27.8700000   2.8720000
  -9.2840000 -28.4870000   1.5680000  -9.5290000 -28.3670000   0.5020000
  -9.3010000 -29.5550000   1.8290000 -10.3200000 -27.7350000   2.4190000
 -10.1140000 -27.9800000   3.4710000 -10.1550000 -26.6600000   2.2540000
 -12.0430000 -28.1370000   2.0410000 -12.8890000 -26.9510000   3.1210000
 -12.5970000 -25.9280000   2.8410000 -13.9770000 -27.0650000   3.0100000
 -12.6050000 -27.1400000   4.1670000  -6.7740000 -28.9840000   1.3890000
  -6.3230000 -29.7240000   2.2590000  -6.3190000 -28.9650000   0.1210000
  -6.8270000 -28.4260000  -0.5510000  -5.1600000 -29.7410000  -0.3410000
  -5.3040000 -30.8040000  -0.0960000  -4.9850000 -29.6060000  -1.8700000
  -4.8730000 -28.5340000  -2.0890000  -4.0570000 -30.1330000  -2.1370000
  -6.1510000 -30.1760000  -2.6900000  -6.2290000 -31.2480000  -2.4570000
  -7.0680000 -29.6630000  -2.3650000  -5.9710000 -29.9930000  -4.2050000
  -5.5830000 -28.9830000  -4.4030000  -5.2530000 -30.7400000  -4.5750000
  -7.2420000 -30.1600000  -4.9290000  -7.6100000 -29.3120000  -5.3110000
  -7.9280000 -31.3010000  -5.1200000  -9.1120000 -31.2520000  -5.7430000
  -9.4720000 -30.3740000  -6.0580000  -9.6310000 -32.0940000  -5.8910000
  -7.4570000 -32.4850000  -4.7050000  -6.5730000 -32.5330000  -4.2400000
  -7.9910000 -33.3150000  -4.8620000  -3.8590000 -29.3240000   0.3720000
  -3.0950000 -30.1970000   0.7820000  -3.6490000 -28.0050000   0.5180000
  -4.3530000 -27.3840000   0.1730000  -2.4360000 -27.4260000   1.0960000
  -1.5610000 -27.9990000   0.7550000  -2.2620000 -25.9460000   0.6570000
  -3.0960000 -25.3820000   1.1000000  -0.9320000 -25.3050000   1.0770000
  -0.0970000 -25.8680000   0.6340000  -0.8990000 -24.2630000   0.7250000
  -0.8450000 -25.3230000   2.1730000  -2.3200000 -25.8420000  -0.7530000
  -2.2060000 -24.8860000  -1.0220000  -2.3930000 -27.4880000   2.6420000
  -1.3050000 -27.6150000   3.2040000  -3.5610000 -27.4160000   3.3030000
  -4.3980000 -27.3840000   2.7560000  -3.6820000 -27.3820000   4.7600000
  -2.9070000 -26.7220000   5.1760000  -4.6760000 -26.9990000   5.0350000
  -3.5090000 -28.7840000   5.3470000  -4.0560000 -29.7510000   4.8190000
  -2.7650000 -28.8690000   6.4580000  -2.3520000 -28.0180000   6.7830000
  -2.4700000 -30.1040000   7.1850000  -2.5290000 -30.9700000   6.5090000
  -1.0410000 -30.0260000   7.7650000  -0.9970000 -29.1420000   8.4180000
  -0.8780000 -30.9330000   8.3650000   0.0520000 -29.9220000   6.6840000
   0.0390000 -30.8290000   6.0620000  -0.1960000 -29.0490000   6.0630000
   1.4420000 -29.7390000   7.2860000   2.2600000 -30.6730000   7.1470000
   1.6850000 -28.6520000   7.8540000  -3.4970000 -30.3620000   8.2990000
  -3.9120000 -31.5090000   8.4590000  -3.8810000 -29.3010000   9.0320000
  -3.4820000 -28.4160000   8.7930000  -4.8310000 -29.3560000  10.1410000
  -5.1930000 -30.3870000  10.2650000  -4.3370000 -29.0270000  11.0670000
  -6.0240000 -28.4390000   9.8610000  -5.8910000 -27.4390000   9.1560000
  -7.1880000 -28.7920000  10.4350000  -7.1710000 -29.6200000  10.9960000
  -8.4690000 -28.1130000  10.2390000  -8.3000000 -27.1070000   9.8270000
  -9.3490000 -28.9080000   9.2540000  -9.2450000 -29.9240000   9.6630000
 -10.4160000 -28.6630000   9.1480000  -8.7710000 -28.9430000   7.8530000
  -7.8070000 -29.9180000   7.5250000  -7.6200000 -30.7550000   8.2140000
  -7.0970000 -29.8260000   6.3410000  -6.3480000 -30.5910000   6.0880000
  -7.3290000 -28.7690000   5.4740000  -6.7510000 -28.7010000   4.5410000
  -8.2800000 -27.8020000   5.7740000  -8.4690000 -26.9810000   5.0670000
  -8.9920000 -27.8710000   6.9640000  -9.7270000 -27.0910000   7.2110000
  -9.1780000 -27.8990000  11.5810000  -9.6650000 -28.8510000  12.1850000
  -9.2360000 -26.6340000  12.0130000  -8.7030000 -25.9620000  11.4990000
  -9.9490000 -26.1870000  13.2000000  -9.9820000 -26.9820000  13.9590000
  -9.1960000 -24.9660000  13.7940000  -8.1570000 -25.1370000  13.4750000
  -9.5620000 -24.0230000  13.3610000  -9.2530000 -24.8810000  15.3310000
 -10.3020000 -24.9850000  15.6460000  -8.4050000 -25.9880000  15.9950000
  -7.3560000 -25.8850000  15.6810000  -8.4710000 -25.8940000  17.0890000
  -8.7840000 -26.9740000  15.6880000  -8.8450000 -23.4850000  15.8390000
  -9.5280000 -22.7290000  15.4250000  -8.8980000 -23.4640000  16.9370000
  -7.8160000 -23.2640000  15.5180000 -11.3950000 -25.8870000  12.7700000
 -11.6600000 -24.8220000  12.2130000 -12.2820000 -26.8740000  12.9640000
 -11.9370000 -27.7110000  13.3880000 -13.6790000 -26.8400000  12.5350000
 -13.7700000 -26.2160000  11.6340000 -14.1970000 -28.2540000  12.2090000
 -13.9130000 -28.9960000  12.9700000 -15.2860000 -28.2820000  12.0580000
 -13.4570000 -28.8230000  10.6520000 -14.0480000 -29.9810000  10.6350000
 -14.5170000 -26.1610000  13.6250000 -14.9090000 -26.8120000  14.5930000
 -14.7310000 -24.8480000  13.4530000 -14.4270000 -24.4460000  12.5890000
 -15.3690000 -23.9780000  14.4330000 -15.2720000 -24.3730000  15.4550000
 -14.7730000 -22.5390000  14.3970000 -14.9890000 -22.1130000  13.4060000
 -15.3520000 -21.6170000  15.4900000 -15.1360000 -22.0420000  16.4810000
 -14.8930000 -20.6210000  15.4110000 -16.4410000 -21.5300000  15.3580000
 -13.2390000 -22.5390000  14.5190000 -12.8040000 -23.1080000  13.6840000
 -12.8690000 -21.5040000  14.4890000 -12.9460000 -23.0050000  15.4710000
 -16.8810000 -23.8700000  14.1590000 -17.2800000 -23.5740000  13.0350000
 -17.6790000 -24.0540000  15.2170000 -17.2790000 -24.5430000  15.9920000
 -19.0830000 -23.6520000  15.3000000 -19.3650000 -23.0760000  14.4060000
 -19.9860000 -24.9100000  15.3850000 -21.0320000 -24.6990000  15.1170000
 -19.5450000 -25.5820000  14.6340000 -20.0190000 -25.6830000  16.6950000
 -19.0200000 -26.6320000  16.9850000 -18.2480000 -26.8650000  16.2370000
 -19.0090000 -27.2740000  18.2170000 -18.2450000 -28.0370000  18.4270000
 -19.9560000 -26.9570000  19.1810000 -19.9320000 -27.4660000  20.1560000
 -20.9300000 -26.0040000  18.9190000 -21.6740000 -25.7560000  19.6910000
 -20.9680000 -25.3660000  17.6890000 -21.7400000 -24.6090000  17.4850000
 -19.2210000 -22.7360000  16.5270000 -18.3870000 -22.7930000  17.4290000
 -20.2880000 -21.9230000  16.5550000 -20.8400000 -21.8290000  15.7260000
 -20.6600000 -21.1350000  17.7290000 -19.8030000 -21.0010000  18.4060000
 -21.1540000 -19.7550000  17.2860000 -22.0180000 -19.8720000  16.6150000
 -21.4540000 -19.1720000  18.1690000 -20.3460000 -19.2290000  16.7560000
 -21.7420000 -21.8830000  18.5150000 -22.7140000 -22.3390000  17.9150000
 -21.5600000 -21.9890000  19.8420000 -20.7240000 -21.5850000  20.2130000
 -22.4480000 -22.7170000  20.7590000 -22.7420000 -23.7180000  20.4090000
 -21.8380000 -22.8250000  22.1830000 -22.6100000 -23.2160000  22.8620000
 -20.6140000 -23.7550000  22.2080000 -19.8420000 -23.3630000  21.5300000
 -20.2110000 -23.8050000  23.2300000 -20.9120000 -24.7620000  21.8820000
 -21.5310000 -21.4540000  22.8400000 -20.4380000 -21.3640000  22.9220000
 -21.9120000 -20.6720000  22.1670000 -22.1610000 -21.2870000  24.2240000
 -21.7800000 -22.0680000  24.8980000 -21.9030000 -20.2970000  24.6280000
 -23.2540000 -21.3760000  24.1430000 -23.8830000 -22.1550000  20.9010000
 -24.7390000 -22.8560000  21.4340000 -24.1260000 -20.9330000  20.4040000
 -23.3220000 -20.3930000  20.1550000 -25.4430000 -20.2920000  20.3360000
 -26.1710000 -20.8530000  20.9410000 -25.3470000 -18.8480000  20.8900000
 -26.3850000 -18.4930000  20.9710000 -24.8990000 -18.8990000  21.8930000
 -24.5490000 -17.8450000  20.0470000 -23.5350000 -18.1820000  19.4380000
 -24.9960000 -16.5890000  20.0380000 -24.5140000 -15.8940000  19.5050000
 -25.8110000 -16.3480000  20.5640000 -26.0720000 -20.3590000  18.9240000
 -27.1130000 -19.7360000  18.7140000 -25.4550000 -21.1110000  17.9960000
 -24.6000000 -21.5480000  18.2740000 -25.8940000 -21.2660000  16.6110000
 -26.9350000 -20.9290000  16.4940000 -24.9870000 -20.4000000  15.7010000
 -24.9610000 -19.3920000  16.1400000 -23.9760000 -20.8340000  15.7200000
 -25.4450000 -20.2870000  14.2400000 -26.4150000 -20.9120000  13.8190000
 -24.7350000 -19.4890000  13.4450000 -24.9950000 -19.3840000  12.4850000
 -23.9440000 -18.9980000  13.8110000 -25.8720000 -22.7630000  16.2500000
 -24.8040000 -23.3260000  16.0100000 -27.0700000 -23.3690000  16.1960000
 -27.8650000 -22.8250000  16.4630000 -27.2790000 -24.7720000  15.8310000
 -26.5530000 -25.4180000  16.3460000 -28.7120000 -25.2450000  16.1990000
 -29.4040000 -24.5780000  15.6640000 -29.0430000 -26.7110000  15.8550000
 -28.3520000 -27.3790000  16.3910000 -30.0760000 -26.9350000  16.1580000
 -28.9370000 -26.8660000  14.7710000 -28.9060000 -25.0740000  17.5900000
 -29.8270000 -25.3760000  17.8380000 -27.0370000 -25.0550000  14.3340000
 -26.5670000 -26.1460000  14.0160000 -27.3010000 -24.0730000  13.4510000
 -27.8110000 -23.2780000  13.7790000 -27.0200000 -24.1760000  12.0160000
 -27.4200000 -25.1240000  11.6260000 -27.6790000 -23.0080000  11.2470000
 -28.7570000 -23.0730000  11.4570000 -27.2740000 -22.0850000  11.6880000
 -27.4530000 -22.9900000   9.7180000 -28.0190000 -22.1360000   9.3170000
 -26.3780000 -22.8270000   9.5510000 -27.8940000 -24.2810000   9.0000000
 -27.1910000 -25.0740000   9.2970000 -28.9010000 -24.5280000   9.3670000
 -27.9210000 -24.1690000   7.4670000 -28.2290000 -25.1430000   7.0600000
 -28.6650000 -23.4060000   7.1950000 -26.6100000 -23.7960000   6.9100000
 -26.3900000 -22.8570000   7.1750000 -25.9090000 -24.4150000   7.2640000
 -26.6410000 -23.8620000   5.9130000 -25.5180000 -24.3170000  11.7230000
 -25.1620000 -25.1750000  10.9220000 -24.6640000 -23.5410000  12.4180000
 -25.0420000 -22.7740000  12.9360000 -23.2050000 -23.6600000  12.3180000
 -22.9040000 -23.6820000  11.2600000 -22.5200000 -22.4610000  13.0000000
 -21.4940000 -22.4070000  12.6060000 -23.0740000 -21.5590000  12.7020000
 -22.4790000 -22.5440000  14.4110000 -22.0220000 -21.7350000  14.7800000
 -22.6560000 -25.0150000  12.8040000 -21.6720000 -25.4910000  12.2430000
 -23.3190000 -25.6260000  13.8000000 -24.0030000 -25.0820000  14.2860000
 -23.0030000 -26.9600000  14.3120000 -21.9170000 -27.0820000  14.4400000
 -23.6840000 -27.1290000  15.6850000 -23.2510000 -26.3640000  16.3460000
 -24.7690000 -26.9690000  15.6010000 -23.4950000 -28.4620000  16.3820000
 -22.2170000 -28.8340000  16.8430000 -21.3600000 -28.1610000  16.6920000
 -22.0390000 -30.0470000  17.4870000 -21.0450000 -30.3220000  17.8690000
 -23.1110000 -30.9150000  17.6510000 -22.9590000 -31.8750000  18.1670000
 -24.3700000 -30.5780000  17.1690000 -25.2090000 -31.2780000  17.2960000
 -24.5720000 -29.3620000  16.5280000 -25.5680000 -29.1050000  16.1380000
 -23.3250000 -28.0900000  13.3120000 -22.6000000 -29.0830000  13.2770000
 -24.3630000 -27.8840000  12.4830000 -24.9380000 -27.0920000  12.6910000
 -24.7540000 -28.7530000  11.3710000 -24.6530000 -29.8120000  11.6510000
 -26.2310000 -28.4730000  11.0230000 -26.3330000 -27.3930000  10.8380000
 -26.4680000 -29.0260000  10.1020000 -27.2050000 -28.8970000  12.1430000
 -27.1960000 -29.9950000  12.2040000 -26.7920000 -28.4750000  13.0710000
 -28.6440000 -28.4080000  11.9560000 -29.4940000 -28.8710000  12.7480000
 -28.8850000 -27.5680000  11.0600000 -23.8470000 -28.5850000  10.1350000
 -23.6280000 -29.5660000   9.4260000 -23.3150000 -27.3670000   9.9130000
 -23.6740000 -26.6250000  10.4790000 -22.3770000 -27.0270000   8.8310000
 -22.7450000 -27.4770000   7.8970000 -22.2190000 -25.5000000   8.6160000
 -21.7820000 -25.1490000   9.5620000 -21.5140000 -25.3070000   7.7940000
 -23.5290000 -24.7530000   8.3500000 -24.4390000 -25.3620000   7.7450000
 -23.5860000 -23.5510000   8.6840000 -20.9910000 -27.6840000   8.9590000
 -20.2940000 -27.7730000   7.9480000 -20.6280000 -28.1620000  10.1650000
 -21.2380000 -27.9580000  10.9310000 -19.3920000 -28.9070000  10.4380000
 -18.4790000 -28.3860000  10.1130000 -19.2620000 -29.2940000  11.9440000
 -20.2060000 -29.7850000  12.2240000 -18.0760000 -30.2260000  12.2860000
 -17.1320000 -29.7360000  12.0080000 -18.0740000 -30.4370000  13.3660000
 -18.1780000 -31.1690000  11.7290000 -19.2480000 -28.0600000  12.8720000
 -20.1390000 -27.4660000  12.6210000 -19.3380000 -28.4380000  13.9010000
 -17.9970000 -27.1770000  12.7590000 -17.9070000 -26.7980000  11.7300000
 -18.0820000 -26.3300000  13.4550000 -17.1050000 -27.7690000  13.0100000
 -19.2680000 -30.1930000   9.5990000 -18.1640000 -30.4940000   9.1490000
 -20.3980000 -30.8900000   9.3770000 -21.2130000 -30.6140000   9.9050000
 -20.5010000 -32.0580000   8.5030000 -19.8160000 -32.8390000   8.8340000
 -21.9390000 -32.6120000   8.5490000 -22.1970000 -32.9260000   9.5600000
 -22.6250000 -31.8290000   8.2260000 -22.1860000 -33.8000000   7.6520000
 -21.6470000 -35.0630000   7.9190000 -22.0570000 -35.8250000   6.9130000
 -21.7320000 -36.8650000   6.9400000 -22.8090000 -35.1660000   6.0310000
 -23.2360000 -35.5240000   5.1890000 -22.9100000 -33.8610000   6.4790000
 -23.4860000 -33.1320000   5.9090000 -20.0670000 -31.7480000   7.0620000
 -19.2250000 -32.4600000   6.5280000 -20.6280000 -30.6770000   6.4790000
 -21.3430000 -30.1950000   7.0050000 -20.3750000 -30.2520000   5.1010000
 -20.4390000 -31.1040000   4.4240000 -21.4310000 -29.2140000   4.6860000
 -21.3820000 -28.3020000   5.2810000 -21.2740000 -28.9700000   3.6350000
 -22.8440000 -29.7300000   4.8030000 -23.6100000 -29.5850000   5.9670000
 -24.7490000 -30.2120000   5.7020000 -25.4860000 -30.2180000   6.5050000
 -24.7870000 -30.7320000   4.4760000 -25.5410000 -31.2460000   4.0420000
 -23.5760000 -30.4400000   3.8740000 -23.3800000 -30.7730000   2.8550000
 -18.9390000 -29.7570000   4.8550000 -18.4030000 -30.0230000   3.7780000
 -18.3260000 -29.1110000   5.8630000 -18.8970000 -28.7660000   6.6080000
 -16.8990000 -28.7830000   5.8730000 -16.6140000 -28.3350000   4.9090000
 -16.5780000 -27.7760000   6.9990000 -17.2670000 -27.9640000   7.8360000
 -15.5460000 -27.9740000   7.3240000 -16.7010000 -26.3300000   6.5580000
 -15.6940000 -25.7700000   5.7450000 -14.8250000 -26.3790000   5.4550000
 -15.7970000 -24.4380000   5.3050000 -15.0150000 -24.0050000   4.6640000
 -16.9120000 -23.6630000   5.6750000 -17.0030000 -22.3720000   5.2540000
 -16.2250000 -22.0890000   4.6930000 -17.9200000 -24.2180000   6.4880000
 -18.7930000 -23.6120000   6.7720000 -17.8110000 -25.5480000   6.9360000
 -18.5920000 -25.9770000   7.5810000 -16.0130000 -30.0330000   5.9600000
 -15.1070000 -30.1630000   5.1390000 -16.3040000 -30.9360000   6.9150000
 -17.0010000 -30.6730000   7.5820000 -15.5740000 -32.1880000   7.1310000
 -14.4970000 -31.9860000   7.2260000 -16.0660000 -32.8650000   8.4310000
 -15.8560000 -32.1640000   9.2530000 -17.1540000 -32.9940000   8.3290000
 -15.4140000 -34.2280000   8.7390000 -15.7440000 -34.9390000   7.9670000
 -14.3230000 -34.0990000   8.6760000 -15.7850000 -34.7700000  10.1240000
 -15.3230000 -34.1350000  10.8940000 -16.8790000 -34.7470000  10.2380000
 -15.3210000 -36.1540000  10.3130000 -16.0430000 -36.8450000  10.2830000
 -14.0540000 -36.5590000  10.5100000 -13.0430000 -35.6870000  10.6090000
 -13.2240000 -34.7060000  10.5360000 -12.1120000 -36.0210000  10.7550000
 -13.7840000 -37.8660000  10.6170000 -14.5260000 -38.5330000  10.5500000
 -12.8420000 -38.1690000  10.7640000 -15.6040000 -33.1290000   5.9140000
 -14.5540000 -33.6500000   5.5510000 -16.7790000 -33.2970000   5.2840000
 -17.5900000 -32.9050000   5.7190000 -16.9620000 -34.1110000   4.0810000
 -16.5000000 -35.0990000   4.2240000 -18.4670000 -34.3080000   3.7880000
 -18.9230000 -33.3070000   3.8020000 -18.5370000 -34.7280000   2.7740000
 -19.2160000 -35.2290000   4.7800000 -19.1080000 -34.7630000   5.7700000
 -20.2780000 -35.2350000   4.4920000 -18.6940000 -36.6670000   4.8340000
 -18.6700000 -37.2200000   5.9550000 -18.3090000 -37.1910000   3.7670000
 -16.2230000 -33.5730000   2.8440000 -15.7540000 -34.3900000   2.0520000
 -16.0850000 -32.2390000   2.7120000 -16.6280000 -31.6390000   3.2990000
 -15.2710000 -31.6290000   1.6580000 -15.4280000 -32.1740000   0.7160000
 -15.6480000 -30.1480000   1.4410000 -16.7380000 -30.0950000   1.3010000
 -15.3690000 -29.5920000   2.3480000 -14.9390000 -29.5240000   0.2150000
 -13.8560000 -29.5380000   0.4100000 -15.1610000 -30.1510000  -0.6610000
 -15.3610000 -28.0870000  -0.0930000 -16.1350000 -27.4720000   0.6390000
 -14.8470000 -27.5420000  -1.1960000 -15.0890000 -26.6040000  -1.4460000
 -14.2220000 -28.0740000  -1.7680000 -13.7680000 -31.8090000   1.9310000
 -13.0520000 -32.1910000   1.0100000 -13.3300000 -31.5730000   3.1820000
 -13.9970000 -31.1980000   3.8260000 -11.9450000 -31.7480000   3.6370000
 -11.2320000 -31.1870000   3.0150000 -11.7680000 -31.3350000   5.1330000
 -12.6110000 -31.7800000   5.6820000 -10.4390000 -31.7740000   5.7860000
  -9.5950000 -31.3290000   5.2380000 -10.4150000 -31.4360000   6.8320000
 -10.3580000 -32.8710000   5.7540000 -11.9400000 -29.8120000   5.3100000
 -10.9750000 -29.3480000   5.0580000 -12.7030000 -29.4880000   4.5870000
 -12.3600000 -29.3830000   6.7220000 -11.5980000 -29.7060000   7.4460000
 -12.4590000 -28.2880000   6.7590000 -13.3250000 -29.8460000   6.9750000
 -11.4310000 -33.1870000   3.4340000 -10.3250000 -33.3570000   2.9230000
 -12.2570000 -34.1850000   3.7930000 -13.1040000 -33.9380000   4.2640000
 -11.9490000 -35.6030000   3.6170000 -10.9490000 -35.8180000   4.0220000
 -12.9800000 -36.4810000   4.3570000 -13.9740000 -36.1200000   4.0550000
 -12.8370000 -37.5080000   3.9910000 -12.8730000 -36.4640000   5.8950000
 -11.8350000 -36.7220000   6.1530000 -13.0880000 -35.4370000   6.2260000
 -13.8370000 -37.4430000   6.5980000 -13.4460000 -38.4550000   6.4180000
 -13.7890000 -37.2180000   7.6740000 -15.2970000 -37.3650000   6.1230000
 -15.6410000 -36.3260000   6.2280000 -15.3330000 -37.6580000   5.0630000
 -16.1710000 -38.2520000   6.9060000 -15.9860000 -39.2040000   6.6610000
 -15.9940000 -38.1180000   7.8810000 -17.1270000 -38.0370000   6.7080000
 -11.8530000 -36.0270000   2.1410000 -10.9310000 -36.7610000   1.7910000
 -12.8040000 -35.5600000   1.3130000 -13.5420000 -35.0320000   1.7340000
 -12.8940000 -35.8610000  -0.1180000 -12.7990000 -36.9430000  -0.2950000
 -14.2730000 -35.3960000  -0.6360000 -15.0230000 -36.0180000  -0.1260000
 -14.3880000 -34.3500000  -0.3170000 -14.4770000 -35.4930000  -2.1610000
 -13.8810000 -34.6920000  -2.6230000 -14.0880000 -36.4700000  -2.4820000
 -15.9440000 -35.3570000  -2.5990000 -15.9760000 -35.3250000  -3.6980000
 -16.4960000 -36.2390000  -2.2420000 -16.5970000 -34.1470000  -2.0720000
 -17.3340000 -34.3290000  -1.4220000 -16.3000000 -32.8680000  -2.3640000
 -15.3300000 -32.5470000  -3.2320000 -14.8060000 -33.2700000  -3.6810000
 -15.1350000 -31.5860000  -3.4260000 -17.0020000 -31.8890000  -1.7780000
 -17.7330000 -32.1180000  -1.1350000 -16.7920000 -30.9340000  -1.9860000
 -11.7320000 -35.2680000  -0.9300000 -11.1180000 -35.9880000  -1.7170000
 -11.4650000 -33.9690000  -0.7180000 -12.0590000 -33.4950000  -0.0680000
 -10.4450000 -33.1910000  -1.4200000 -10.4780000 -33.3150000  -2.5120000
 -10.5950000 -31.6780000  -1.0860000 -10.7730000 -31.6160000  -0.0020000
  -9.3960000 -30.7940000  -1.4590000  -9.2180000 -30.8550000  -2.5430000
  -9.6080000 -29.7510000  -1.1800000  -8.5020000 -31.1420000  -0.9210000
 -11.8600000 -31.0930000  -1.7400000 -12.7470000 -31.6270000  -1.3670000
 -11.9430000 -30.0250000  -1.4900000 -11.7950000 -31.2090000  -2.8320000
  -9.0070000 -33.6670000  -1.1250000  -8.1900000 -33.6890000  -2.0450000
  -8.7340000 -34.0650000   0.1280000  -9.4370000 -33.9360000   0.8270000
  -7.4340000 -34.5980000   0.5410000  -6.6260000 -34.1200000  -0.0310000
  -7.2150000 -34.3100000   2.0370000  -8.0510000 -34.7580000   2.5940000
  -6.2730000 -34.7910000   2.3400000  -7.1430000 -32.8050000   2.3450000
  -6.4310000 -32.3570000   1.6370000  -8.1450000 -32.3850000   2.1710000
  -6.6990000 -32.4940000   3.7830000  -6.8950000 -31.4250000   3.9560000
  -7.3320000 -33.0960000   4.4520000  -5.2190000 -32.7960000   4.0700000
  -5.0010000 -32.4950000   5.1050000  -5.0620000 -33.8790000   3.9620000
  -4.3210000 -32.0760000   3.1510000  -4.8530000 -31.4300000   2.6040000
  -3.6330000 -31.5780000   3.6790000  -3.8680000 -32.7310000   2.5460000
  -7.2610000 -36.0990000   0.2510000  -6.1240000 -36.5700000   0.2690000
  -8.3750000 -36.8160000   0.0140000  -9.2230000 -36.2920000   0.0900000
  -8.4680000 -38.2700000  -0.1680000  -9.5290000 -38.5600000  -0.1730000
  -7.8180000 -38.7440000  -1.4960000  -8.0470000 -38.0420000  -2.3120000
  -6.7410000 -38.7070000  -1.2730000  -8.2030000 -40.1660000  -1.9220000
  -9.3170000 -40.6090000  -1.5620000  -7.4120000 -40.7600000  -2.6850000
  -7.9410000 -39.0040000   1.0880000  -6.9970000 -39.7930000   1.0190000
  -8.5350000 -38.6450000   2.2320000  -9.3170000 -38.0270000   2.1490000
  -8.1120000 -39.0480000   3.5650000  -7.7840000 -40.0980000   3.5660000
  -6.9230000 -38.1570000   4.0030000  -6.0720000 -38.3860000   3.3450000
  -7.2220000 -37.1080000   3.8630000  -6.5450000 -38.3640000   5.3520000
  -5.7770000 -37.7650000   5.5780000  -9.3210000 -38.9020000   4.4900000
  -9.8830000 -37.8140000   4.5650000  -9.6850000 -39.9770000   5.2010000
  -9.2990000 -40.8650000   4.9520000 -10.7100000 -39.9340000   6.2490000
 -11.3650000 -39.0620000   6.1060000 -11.5680000 -41.2110000   6.1820000
 -10.8910000 -42.0770000   6.2270000 -12.2320000 -41.2190000   7.0590000
 -12.4150000 -41.2880000   4.8950000 -13.0320000 -40.3770000   4.8730000
 -11.7380000 -41.2930000   4.0280000 -13.3210000 -42.5190000   4.8400000
 -13.3890000 -43.1260000   3.7490000 -13.9520000 -42.8220000   5.8770000
 -10.1120000 -39.7060000   7.6520000 -10.8760000 -39.5610000   8.6060000
  -8.7720000 -39.6680000   7.7450000  -8.2790000 -39.7500000   6.8790000
  -7.9940000 -39.5950000   8.9810000  -8.6460000 -39.7230000   9.8580000
  -6.9390000 -40.7340000   8.9760000  -7.3900000 -41.6160000   8.4990000
  -6.1290000 -40.3480000   8.3400000  -6.3700000 -41.1290000  10.3450000
  -7.0080000 -40.8120000  11.3720000  -5.3120000 -41.7960000  10.3310000
  -7.3370000 -38.2040000   9.1570000  -6.4510000 -38.0710000  10.0000000
  -7.7690000 -37.1910000   8.3780000  -8.5260000 -37.4050000   7.7610000
  -7.2350000 -35.8210000   8.3770000  -6.1940000 -35.7800000   8.0250000
  -8.1020000 -34.8840000   7.4800000  -9.1440000 -34.9760000   7.8210000
  -7.6730000 -33.4020000   7.5330000  -6.6310000 -33.3090000   7.1920000
  -8.3270000 -32.8070000   6.8790000  -7.7550000 -33.0330000   8.5660000
  -8.1030000 -35.3410000   6.0160000  -8.5130000 -36.3600000   5.9490000
  -8.7240000 -34.6570000   5.4190000  -7.0740000 -35.3350000   5.6280000
  -7.2300000 -35.2010000   9.8010000  -8.2900000 -35.2000000  10.4290000
  -6.0640000 -34.6930000  10.2750000  -4.7650000 -34.7880000   9.6100000
  -4.7830000 -34.1440000   8.7180000  -4.6070000 -35.8330000   9.3040000
  -3.7520000 -34.3270000  10.6410000  -2.8930000 -33.8430000  10.1530000
  -3.4000000 -35.1750000  11.2460000  -4.5300000 -33.3460000  11.4880000
  -4.5420000 -32.3460000  11.0290000  -4.1250000 -33.2750000  12.5080000
  -5.9510000 -33.9180000  11.5280000  -6.0620000 -34.6250000  12.3630000
  -6.9980000 -32.8040000  11.6590000  -7.0490000 -31.9060000  10.8180000
  -7.8580000 -32.9340000  12.6730000  -7.7300000 -33.6900000  13.3150000
  -9.0290000 -32.0860000  12.8310000  -8.8090000 -31.0570000  12.5110000
 -10.1700000 -32.6450000  11.9490000  -9.7290000 -32.8480000  10.9620000
 -10.4850000 -33.5920000  12.4110000 -11.3890000 -31.7250000  11.7860000
 -11.8010000 -31.5480000  12.7910000 -11.0270000 -30.7750000  11.3660000
 -12.6930000 -32.3910000  10.7160000 -11.8490000 -32.3390000   9.1100000
 -10.9440000 -32.9630000   9.1500000 -12.5230000 -32.7200000   8.3290000
 -11.5680000 -31.3010000   8.8760000  -9.3920000 -31.9890000  14.3120000
  -9.2150000 -32.9560000  15.0480000  -9.8950000 -30.8160000  14.7150000
  -9.9290000 -30.0750000  14.0440000 -10.3870000 -30.5520000  16.0610000
 -10.6030000 -31.4740000  16.6200000  -9.3830000 -29.6910000  16.8880000
  -9.0820000 -28.8520000  16.2430000  -9.9360000 -29.1430000  18.2220000
 -10.2370000 -29.9820000  18.8670000  -9.1570000 -28.5530000  18.7270000
 -10.8090000 -28.5030000  18.0230000  -8.0830000 -30.4620000  17.1710000
  -7.6050000 -30.7370000  16.2190000  -7.4000000 -29.8270000  17.7540000
  -8.3130000 -31.3730000  17.7420000 -11.7150000 -29.8020000  15.9160000
 -11.7570000 -28.7620000  15.2540000 -12.7670000 -30.3370000  16.5550000
 -12.6750000 -31.2690000  16.9060000 -14.0510000 -29.6630000  16.7110000
 -14.3380000 -29.1660000  15.7720000 -15.1400000 -30.7020000  17.0740000
 -15.0670000 -31.4320000  16.2550000 -14.9140000 -31.1990000  18.0290000
 -16.5710000 -30.1230000  17.1210000 -16.5870000 -29.3050000  17.8560000
 -17.0220000 -29.5900000  15.7510000 -17.0070000 -30.4080000  15.0150000
 -18.0430000 -29.1880000  15.8310000 -16.3390000 -28.7910000  15.4250000
 -17.5740000 -31.1450000  17.6760000 -17.2800000 -31.4300000  18.6970000
 -18.5800000 -30.7000000  17.6950000 -17.5810000 -32.0380000  17.0340000
 -13.9140000 -28.5700000  17.7830000 -13.3940000 -28.8470000  18.8640000
 -14.3750000 -27.3540000  17.4620000 -14.7530000 -27.2180000  16.5460000
 -14.2960000 -26.2040000  18.3540000 -14.0120000 -26.4870000  19.3790000
 -13.2850000 -25.1410000  17.8340000 -13.4790000 -25.0170000  16.7580000
 -13.3750000 -23.7710000  18.5330000 -13.1810000 -23.8940000  19.6090000
 -12.6270000 -23.0890000  18.1020000 -14.3810000 -23.3500000  18.3880000
 -11.8450000 -25.6720000  17.9400000 -11.7450000 -26.5860000  17.3360000
 -11.1440000 -24.9100000  17.5680000 -11.6150000 -25.9010000  18.9910000
 -15.6880000 -25.5860000  18.5260000 -16.3010000 -25.1850000  17.5390000
 -16.1380000 -25.5030000  19.7860000 -15.5890000 -25.9280000  20.5060000
 -17.3750000 -24.8330000  20.1660000 -18.0350000 -24.6820000  19.2990000
 -17.9150000 -25.3920000  20.9440000 -16.9690000 -23.4760000  20.7230000
 -16.6380000 -23.3770000  21.9000000 -17.0030000 -22.4380000  19.8760000
 -17.2080000 -22.6370000  18.9180000 -16.6740000 -21.0640000  20.2430000
 -15.8820000 -21.0520000  21.0070000 -16.1680000 -20.3020000  18.9940000
 -15.5440000 -20.9970000  18.4130000 -17.0410000 -20.0050000  18.3940000
 -15.3400000 -19.0470000  19.3110000 -14.6050000 -18.9980000  20.2960000
 -15.4650000 -18.0180000  18.4770000 -14.9460000 -17.1790000  18.6410000
 -16.0770000 -18.0880000  17.6890000 -17.8650000 -20.3490000  20.9030000
 -19.0010000 -20.8130000  20.8170000 -17.5580000 -19.2040000  21.5310000
 -16.5760000 -19.0560000  21.6460000 -18.4790000 -18.2790000  22.1890000
 -17.9110000 -17.4110000  22.5550000 -19.5920000 -17.7750000  21.2330000
 -20.3240000 -18.5930000  21.1570000 -20.0570000 -16.9120000  21.7320000
 -19.1330000 -17.3640000  19.8200000 -18.1330000 -16.9140000  19.9020000
 -19.0770000 -18.2700000  19.1990000 -20.0950000 -16.3590000  19.1710000
 -21.1000000 -16.8060000  19.1830000 -20.0920000 -15.4490000  19.7890000
 -19.7130000 -15.9990000  17.7310000 -18.6850000 -15.6080000  17.7260000
 -19.7620000 -16.9080000  17.1140000 -20.6260000 -14.9840000  17.1810000
 -21.5510000 -15.1450000  17.5260000 -20.3200000 -14.0740000  17.4590000
 -20.6280000 -15.0440000  16.1830000 -19.0420000 -18.8290000  23.5140000
 -20.1710000 -18.5000000  23.8690000 -18.2460000 -19.6390000  24.2370000
 -17.3790000 -19.8980000  23.8120000 -18.6150000 -20.2730000  25.5130000
 -19.6330000 -20.6830000  25.4340000 -17.6510000 -21.4160000  25.8750000
 -16.5920000 -21.1470000  25.7470000 -17.8080000 -21.8110000  26.8900000
 -17.9590000 -22.7960000  24.7460000 -17.0570000 -23.5860000  25.2480000
 -18.7780000 -19.2990000  26.6980000 -19.2720000 -19.7170000  27.7450000
 -18.4230000 -18.0200000  26.4990000 -17.8750000 -17.8410000  25.6820000
 -18.7110000 -16.9040000  27.4000000 -18.4680000 -17.2010000  28.4310000
 -17.8840000 -15.6450000  27.0400000 -18.2460000 -14.8490000  27.7070000
 -16.8290000 -15.8610000  27.2660000 -18.0100000 -15.1860000  25.5820000
 -17.5170000 -15.9080000  24.6880000 -18.5840000 -14.0940000  25.3880000
 -20.2120000 -16.5320000  27.4310000 -20.6520000 -15.9450000  28.4190000
 -20.9550000 -16.8440000  26.3510000 -20.5000000 -17.3560000  25.6220000
 -22.3600000 -16.4800000  26.1690000 -22.5460000 -15.4610000  26.5380000
 -22.7030000 -16.5300000  24.6600000 -22.3930000 -17.5460000  24.3730000
 -23.7890000 -16.4250000  24.5170000 -21.9650000 -15.4980000  23.7770000
 -20.8800000 -15.6540000  23.8720000 -22.3790000 -15.6600000  22.3050000
 -23.4630000 -15.5030000  22.2090000 -21.8460000 -14.9190000  21.6900000
 -22.1240000 -16.6730000  21.9610000 -22.1640000 -14.0400000  24.2370000
 -21.7860000 -13.9240000  25.2640000 -21.6130000 -13.3650000  23.5660000
 -23.2350000 -13.7900000  24.2110000 -23.2820000 -17.4530000  26.9400000
 -23.2380000 -18.6520000  26.6520000 -24.1070000 -16.9450000  27.8900000
 -24.1500000 -15.5610000  28.3760000 -24.1990000 -14.8890000  27.5070000
 -23.2280000 -15.3620000  28.9410000 -25.3950000 -15.4800000  29.2490000
 -26.2770000 -15.1990000  28.6550000 -25.2580000 -14.7560000  30.0660000
 -25.5200000 -16.8930000  29.7920000 -26.5470000 -17.1560000  30.0870000
 -24.8470000 -17.0230000  30.6520000 -25.0640000 -17.7890000  28.6290000
 -24.4880000 -18.6390000  29.0240000 -26.2610000 -18.3170000  27.8080000
 -26.8330000 -19.3300000  28.2110000 -26.6100000 -17.6600000  26.6830000
 -26.1550000 -16.7870000  26.5100000 -27.6940000 -18.0710000  25.7810000
 -28.4790000 -18.6010000  26.3410000 -28.3150000 -16.8170000  25.1260000
 -28.6050000 -16.1180000  25.9240000 -27.5530000 -16.3480000  24.4860000
 -29.4510000 -17.1400000  24.3470000 -29.8240000 -16.3060000  23.9400000
 -27.2020000 -19.1270000  24.7660000 -27.1590000 -18.8700000  23.5630000
 -26.8340000 -20.3020000  25.2970000 -26.8470000 -20.3380000  26.2960000
 -26.3870000 -21.4850000  24.5680000 -25.7150000 -21.2260000  23.7370000
 -25.6050000 -22.3460000  25.5840000 -24.7680000 -21.7220000  25.9320000
 -26.2950000 -22.5330000  26.4200000 -25.0600000 -23.6870000  25.0590000
 -25.9090000 -24.2610000  24.6590000 -24.3520000 -23.4670000  24.2470000
 -24.3520000 -24.5100000  26.1460000 -24.9800000 -24.4960000  27.0490000
 -24.2550000 -25.5440000  25.7840000 -23.0170000 -24.0060000  26.4930000
 -22.9860000 -23.1850000  27.0630000 -21.8570000 -24.5530000  26.0940000
 -21.8240000 -25.6030000  25.2630000 -22.6790000 -25.9970000  24.9260000
 -20.9440000 -25.9880000  24.9840000 -20.7030000 -24.0490000  26.5460000
 -20.7130000 -23.2720000  27.1750000 -19.8360000 -24.4520000  26.2530000
 -27.5860000 -22.2410000  23.9620000 -28.6380000 -22.3160000  24.6000000
 -27.3890000 -22.8170000  22.7650000 -26.5200000 -22.6300000  22.3080000
 -28.3680000 -23.6670000  22.0770000 -29.2390000 -23.9170000  22.7010000
 -28.8720000 -23.0160000  20.7590000 -29.6370000 -23.6810000  20.3310000
 -29.4680000 -21.6150000  20.9640000 -28.7030000 -20.9500000  21.3910000
 -29.8040000 -21.2130000  19.9970000 -30.3250000 -21.6780000  21.6510000
 -27.8730000 -22.9630000  19.7540000 -28.2500000 -22.5370000  18.9310000
 -27.7900000 -25.0580000  21.7360000 -28.5760000 -25.9920000  21.5780000
 -26.4560000 -25.1800000  21.6420000 -25.9150000 -24.3450000  21.7480000
 -25.7510000 -26.4370000  21.4140000 -26.4380000 -27.2570000  21.1600000
 -24.6810000 -26.3190000  20.2910000 -23.9500000 -25.5560000  20.5980000
 -23.9510000 -27.6530000  20.0260000 -24.6810000 -28.4160000  19.7180000
 -23.2090000 -27.5130000  19.2260000 -23.4420000 -27.9820000  20.9440000
 -25.2770000 -25.7870000  18.9760000 -25.7070000 -24.7890000  19.1460000
 -24.4860000 -25.7210000  18.2140000 -26.0650000 -26.4700000  18.6270000
 -25.0420000 -26.8150000  22.7230000 -24.1300000 -26.1060000  23.1570000
 -25.4900000 -27.9240000  23.3270000 -26.2800000 -28.3710000  22.9070000
 -24.9650000 -28.4750000  24.5800000 -24.9190000 -27.6620000  25.3200000
 -25.8270000 -29.6280000  25.1630000 -25.5410000 -30.4800000  24.5280000
 -25.5010000 -29.8160000  26.1970000 -27.3500000 -29.4560000  25.1310000
 -27.8230000 -28.3010000  25.0450000 -28.0210000 -30.5000000  25.2730000
 -23.5150000 -28.9660000  24.4300000 -23.0910000 -29.3210000  23.3280000
 -22.7970000 -29.0300000  25.5630000 -23.1830000 -28.6040000  26.3810000
 -21.4770000 -29.6600000  25.6640000 -20.7740000 -29.1930000  24.9580000
 -20.8970000 -29.5330000  27.0990000 -21.5860000 -30.0730000  27.7650000
 -19.4710000 -30.0840000  27.2810000 -18.7810000 -29.5440000  26.6160000
 -19.1550000 -29.9470000  28.3260000 -19.4570000 -31.1550000  27.0320000
 -20.8810000 -28.1720000  27.4790000 -20.5080000 -28.0890000  28.4030000
 -21.5180000 -31.1590000  25.2940000 -20.6270000 -31.6210000  24.5840000
 -22.5830000 -31.8610000  25.7260000 -23.1970000 -31.3910000  26.3600000
 -22.8220000 -33.2780000  25.4510000 -21.9010000 -33.8580000  25.6070000
 -23.9090000 -33.8120000  26.4070000 -23.6430000 -33.4570000  27.4140000
 -24.8570000 -33.3500000  26.0940000 -24.0690000 -35.3500000  26.4290000
 -23.2220000 -35.7730000  25.8680000 -24.0060000 -35.6680000  27.4800000
 -25.3900000 -35.8510000  25.8190000 -26.2060000 -35.2800000  26.2850000
 -25.3600000 -35.6320000  24.7410000 -25.6310000 -37.3560000  26.0300000
 -25.5980000 -37.5590000  27.1110000 -26.6310000 -37.5990000  25.6420000
 -24.6250000 -38.1840000  25.3450000 -23.7360000 -38.0600000  25.7850000
 -24.8930000 -39.1460000  25.3980000 -24.5630000 -37.9080000  24.3860000
 -23.1360000 -33.5710000  23.9710000 -22.6570000 -34.5880000  23.4770000
 -23.8630000 -32.6700000  23.2780000 -24.2920000 -31.9290000  23.7950000
 -24.1140000 -32.7460000  21.8300000 -24.6280000 -33.6900000  21.5970000
 -24.9980000 -31.5720000  21.3510000 -24.5990000 -30.6640000  21.8260000
 -24.8660000 -31.5030000  20.2610000 -26.4930000 -31.7070000  21.6780000
 -26.9100000 -32.6270000  21.2430000 -26.6150000 -31.7300000  22.7710000
 -27.2690000 -30.5100000  21.1250000 -27.5170000 -29.5420000  21.8370000
 -27.6340000 -30.5540000  19.8420000 -28.1430000 -29.7910000  19.4440000
 -27.3970000 -31.3500000  19.2850000 -22.8230000 -32.7720000  20.9980000
 -22.6760000 -33.6280000  20.1260000 -21.9190000 -31.8280000  21.2990000
 -22.1760000 -31.1590000  21.9960000 -20.6480000 -31.6520000  20.6080000
 -20.8420000 -31.7500000  19.5300000 -20.1540000 -30.2350000  20.8880000
 -19.9460000 -30.1240000  21.9620000 -19.2340000 -30.0470000  20.3160000
 -20.9260000 -29.5110000  20.5870000 -19.5950000 -32.7140000  20.9620000
 -18.7920000 -33.0550000  20.0950000 -19.6530000 -33.2670000  22.1870000
 -20.2060000 -32.8020000  22.8780000 -18.8800000 -34.4430000  22.5930000
 -17.8200000 -34.3010000  22.3350000 -18.9910000 -34.6600000  24.1140000
 -20.0470000 -34.5240000  24.3920000 -18.6870000 -35.6960000  24.3240000
 -18.1160000 -33.6930000  24.9340000 -17.0670000 -33.9320000  24.7070000
 -18.3290000 -32.6570000  24.6300000 -18.3300000 -33.8130000  26.4460000
 -19.3470000 -34.3270000  26.9100000 -17.3760000 -33.3070000  27.2290000
 -17.4690000 -33.3600000  28.2230000 -16.5720000 -32.8760000  26.8180000
 -19.2770000 -35.7160000  21.8260000 -18.3850000 -36.4630000  21.4300000
 -20.5870000 -35.9160000  21.5960000 -21.2300000 -35.3280000  22.0870000
 -21.1280000 -37.0210000  20.7940000 -20.5860000 -37.9370000  21.0710000
 -22.6450000 -37.2650000  20.9890000 -23.1070000 -36.3550000  20.5790000
 -22.9420000 -38.1320000  20.3800000 -23.1150000 -37.4700000  22.4340000
 -22.2730000 -37.7430000  23.3200000 -24.3490000 -37.4110000  22.6280000
 -20.8030000 -36.8960000  19.2970000 -20.5320000 -37.9200000  18.6700000
 -20.8080000 -35.6650000  18.7490000 -21.1610000 -34.9090000  19.2990000
 -20.4300000 -35.3950000  17.3570000 -20.9370000 -36.1070000  16.6890000
 -20.8400000 -33.9590000  16.9520000 -21.9070000 -33.9520000  17.2170000
 -20.3130000 -33.1860000  17.5310000 -20.6830000 -33.6670000  15.4380000
 -19.6440000 -33.8900000  15.1540000 -21.6430000 -34.5100000  14.5740000
 -22.6830000 -34.2880000  14.8570000 -21.4920000 -34.2660000  13.5120000
 -21.4400000 -35.5790000  14.7360000 -20.7910000 -32.1680000  15.1110000
 -20.0020000 -31.6180000  15.6450000 -20.6730000 -32.0190000  14.0280000
 -21.7760000 -31.7940000  15.4270000 -18.9340000 -35.6540000  17.1070000
 -18.5930000 -36.2890000  16.1110000 -18.0790000 -35.1900000  18.0310000
 -18.4540000 -34.6150000  18.7580000 -16.6340000 -35.3970000  17.9890000
 -16.2860000 -35.1200000  16.9830000 -15.9830000 -34.4620000  19.0060000
 -16.3150000 -34.7330000  20.0190000 -14.8890000 -34.5550000  18.9420000
 -16.2760000 -33.4240000  18.7900000 -16.2140000 -36.8560000  18.2220000
 -15.2220000 -37.2780000  17.6340000 -16.9910000 -37.6120000  19.0210000
 -17.6820000 -37.1370000  19.5660000 -16.8000000 -39.0470000  19.2410000
 -15.7310000 -39.2730000  19.3660000 -17.5500000 -39.4820000  20.5200000
 -17.2590000 -38.7800000  21.3150000 -18.6250000 -39.3740000  20.3120000
 -17.2570000 -40.9270000  20.9780000 -17.5140000 -41.5850000  20.1350000
 -16.1760000 -40.9860000  21.1720000 -18.0270000 -41.3760000  22.2320000
 -19.0930000 -41.4620000  21.9740000 -17.6450000 -42.3600000  22.5420000
 -17.8890000 -40.4410000  23.3580000 -17.0100000 -40.4690000  23.8330000
 -18.8220000 -39.5720000  23.7850000 -20.0560000 -39.5480000  23.2640000
 -20.3020000 -40.1900000  22.5370000 -20.7260000 -38.8890000  23.6050000
 -18.5030000 -38.7150000  24.7610000 -17.5840000 -38.7320000  25.1560000
 -19.1840000 -38.0610000  25.0910000 -17.1820000 -39.8880000  18.0070000
 -16.5020000 -40.8790000  17.7410000 -18.2140000 -39.4570000  17.2540000
 -18.7950000 -38.7420000  17.6420000 -18.6240000 -40.0760000  15.9870000
 -18.6140000 -41.1720000  16.0820000 -20.0580000 -39.6250000  15.6180000
 -20.4850000 -40.4060000  14.9720000 -20.6300000 -39.5710000  16.5560000
 -20.1230000 -38.3770000  14.9550000 -21.0770000 -38.1570000  14.7520000
 -17.6050000 -39.8560000  14.8470000 -17.5000000 -40.7090000  13.9670000
 -16.8610000 -38.7380000  14.9080000 -17.1000000 -38.0810000  15.6230000
 -15.7660000 -38.4050000  13.9950000 -15.9670000 -38.7970000  12.9870000
 -15.6430000 -36.8690000  13.9120000 -15.4640000 -36.5690000  14.9550000
 -14.7430000 -36.6650000  13.3140000 -16.8150000 -36.0760000  13.3500000
 -17.8020000 -36.6660000  12.5270000 -17.7620000 -37.7440000  12.3140000
 -18.8340000 -35.8790000  11.9810000 -19.5980000 -36.3460000  11.3420000
 -18.8920000 -34.4990000  12.2530000 -19.8850000 -33.7400000  11.7050000
 -20.5100000 -34.2690000  11.1310000 -17.9220000 -33.9110000  13.0880000
 -17.9720000 -32.8350000  13.3130000 -16.8910000 -34.6960000  13.6340000
 -16.1360000 -34.2350000  14.2880000 -14.4180000 -39.0080000  14.4360000
 -13.5350000 -39.1540000  13.5910000 -14.2750000 -39.3380000  15.7320000
 -15.0710000 -39.2150000  16.3240000 -13.0430000 -39.8590000  16.3250000
 -13.2820000 -40.2900000  17.3080000 -12.6420000 -40.6450000  15.6680000
 -11.9760000 -38.7650000  16.5040000 -10.7900000 -39.0760000  16.3990000
 -12.3870000 -37.5050000  16.7400000 -13.3760000 -37.3650000  16.7950000
 -11.5090000 -36.3350000  16.8800000 -10.4340000 -36.5520000  16.9630000
 -11.7460000 -35.3150000  15.7220000 -11.0490000 -34.4720000  15.8390000
 -11.5130000 -35.9890000  14.3530000 -12.2100000 -36.8320000  14.2350000
 -11.6840000 -35.2570000  13.5500000 -10.4790000 -36.3590000  14.2980000
 -13.0890000 -34.5400000  15.7770000 -13.8970000 -35.2860000  15.7680000
 -13.1100000 -33.9890000  16.7290000 -13.2860000 -33.5580000  14.6130000
 -13.2660000 -34.1080000  13.6610000 -14.2550000 -33.0500000  14.7220000
 -12.4780000 -32.8120000  14.6220000 -11.7410000 -35.6340000  18.2440000
 -12.7810000 -35.8700000  18.8610000 -10.8020000 -34.7670000  18.6980000
  -9.4550000 -34.5730000  18.1570000  -9.4860000 -33.7900000  17.3850000
  -9.1080000 -35.5150000  17.7080000  -8.6300000 -34.1690000  19.3630000
  -7.7390000 -33.5970000  19.0650000  -8.3220000 -35.0470000  19.9490000
  -9.6040000 -33.3090000  20.1470000  -9.6090000 -32.2770000  19.7670000
  -9.3620000 -33.3020000  21.2200000 -10.9870000 -33.9580000  19.9240000
 -11.2420000 -34.6540000  20.7360000 -12.0830000 -32.8790000  19.8090000
 -12.2060000 -32.2580000  18.7530000 -12.8150000 -32.6530000  20.9150000
 -12.8150000 -33.3680000  21.6140000 -13.6770000 -31.4860000  21.1150000
 -13.6450000 -30.8540000  20.2150000 -15.1410000 -31.8960000  21.3770000
 -15.5290000 -32.3050000  20.4320000 -15.2200000 -32.6590000  22.1660000
 -16.0730000 -30.7610000  21.7740000 -16.2810000 -29.6790000  20.8920000
 -15.8010000 -29.6780000  19.9020000 -17.0890000 -28.6190000  21.2710000
 -17.2390000 -27.7730000  20.5840000 -17.7080000 -28.6220000  22.5130000
 -18.3620000 -27.7840000  22.7960000 -17.5060000 -29.6750000  23.3970000
 -18.0020000 -29.6660000  24.3790000 -16.6820000 -30.7360000  23.0450000
 -16.5050000 -31.5550000  23.7570000 -13.1290000 -30.6070000  22.2430000
 -12.8860000 -31.1180000  23.3370000 -12.9810000 -29.3030000  21.9580000
 -13.1830000 -29.0220000  21.0200000 -12.5130000 -28.2880000  22.9000000
 -12.6000000 -28.6220000  23.9440000 -11.0350000 -27.8800000  22.6050000
 -10.9550000 -27.7730000  21.5130000 -10.5530000 -26.5780000  23.2870000
 -10.6330000 -26.6840000  24.3790000  -9.5050000 -26.3860000  23.0120000
 -11.1790000 -25.7360000  22.9550000 -10.0740000 -29.0320000  22.9770000
  -9.8540000 -28.9350000  24.0500000 -10.6140000 -29.9740000  22.7980000
  -8.7660000 -29.0380000  22.1880000  -8.2250000 -28.0970000  22.3670000
  -8.1450000 -29.8850000  22.5140000  -8.9850000 -29.1360000  21.1140000
 -13.4360000 -27.0630000  22.8110000 -13.5460000 -26.4560000  21.7460000
 -14.0640000 -26.7130000  23.9440000 -14.0290000 -27.3570000  24.7090000
 -14.8360000 -25.4820000  24.1090000 -15.4670000 -25.3070000  23.2250000
 -15.7440000 -25.6020000  25.3450000 -15.1540000 -26.0180000  26.1750000
 -16.1010000 -24.5980000  25.6170000 -16.9470000 -26.5140000  25.0660000
 -17.4050000 -26.1740000  24.1260000 -16.5500000 -27.5310000  24.9340000
 -17.9980000 -26.5180000  26.1700000 -17.6200000 -26.3500000  27.3490000
 -19.1830000 -26.6850000  25.8100000 -13.9140000 -24.2660000  24.2320000
 -12.9260000 -24.3340000  24.9630000 -14.2580000 -23.1840000  23.5180000
 -15.0950000 -23.2220000  22.9720000 -13.4410000 -21.9780000  23.4480000
 -12.7510000 -21.8770000  24.2990000 -12.6180000 -21.8990000  22.1260000
 -11.9740000 -21.0100000  22.2020000 -11.7540000 -23.1320000  21.8420000
 -12.3970000 -24.0210000  21.7660000 -11.2120000 -22.9910000  20.8950000
 -11.0320000 -23.2710000  22.6600000 -13.4140000 -21.6360000  20.9880000
 -12.8320000 -21.5970000  20.1760000 -14.2690000 -20.6900000  23.5870000
 -15.4880000 -20.6900000  23.4260000 -13.5380000 -19.6030000  23.8570000
 -12.5990000 -19.7770000  24.1550000 -13.9950000 -18.2260000  23.7920000
 -14.8230000 -18.1400000  23.0740000 -14.4930000 -17.7600000  25.1750000
 -15.3820000 -18.3510000  25.4380000 -13.6970000 -17.9490000  25.9100000
 -14.8230000 -16.3860000  25.1810000 -15.1410000 -16.1240000  26.0920000
 -12.8110000 -17.3920000  23.2980000 -11.7750000 -17.3520000  23.9610000
 -13.0110000 -16.7030000  22.1670000 -13.8310000 -16.9260000  21.6400000
 -12.1130000 -15.6750000  21.6480000 -11.0870000 -16.0710000  21.6060000
 -12.5600000 -15.3250000  20.2300000 -13.5820000 -14.9190000  20.2570000
 -11.8790000 -14.5730000  19.8050000 -12.5420000 -16.2300000  19.6050000
 -12.0960000 -14.3920000  22.4980000 -11.1630000 -13.6030000  22.3580000
 -13.1260000 -14.1930000  23.3380000 -13.8860000 -14.8410000  23.2810000
 -13.2710000 -13.0340000  24.2100000 -12.8680000 -12.1330000  23.7230000
 -14.7670000 -12.8070000  24.5050000 -15.2810000 -12.7380000  23.5350000
 -15.1270000 -13.6930000  25.0480000 -15.0630000 -11.5440000  25.3320000
 -14.6210000 -11.6730000  26.3310000 -14.5920000 -10.6850000  24.8310000
 -16.5690000 -11.2920000  25.4690000 -16.9810000 -11.1720000  24.4560000
 -17.0140000 -12.1790000  25.9430000 -16.8960000 -10.0490000  26.3040000
 -16.4610000 -10.1720000  27.3070000 -16.4500000  -9.1690000  25.8180000
 -18.3510000  -9.8600000  26.4210000 -18.7460000  -9.7480000  25.5090000
 -18.7560000 -10.6590000  26.8650000 -18.5390000  -9.0440000  26.9680000
 -12.4030000 -13.1460000  25.4720000 -11.6260000 -12.2320000  25.7470000
 -12.5480000 -14.2600000  26.2060000 -13.1710000 -14.9600000  25.8580000
 -11.8850000 -14.4960000  27.4930000 -11.5270000 -13.5850000  27.9940000
 -12.8400000 -15.2510000  28.4580000 -12.3460000 -15.2930000  29.4400000
 -14.2200000 -14.5910000  28.6080000 -14.7160000 -14.5490000  27.6270000
 -14.8360000 -15.1800000  29.3030000 -14.0980000 -13.5710000  29.0010000
 -13.0000000 -16.6150000  28.1120000 -13.6210000 -17.0530000  28.7620000
 -10.5740000 -15.3050000  27.3710000  -9.8840000 -15.4650000  28.3780000
 -10.2610000 -15.8060000  26.1630000 -10.9480000 -15.6350000  25.4570000
  -9.1520000 -16.7120000  25.8480000  -9.1920000 -16.9710000  24.7800000
  -7.7680000 -16.0670000  26.1510000  -7.8610000 -14.9950000  25.9240000
  -7.5840000 -16.1990000  27.2270000  -6.5860000 -16.6630000  25.3500000
  -6.7520000 -17.7490000  25.2900000  -6.6290000 -16.2300000  24.3400000
  -5.2080000 -16.3890000  25.9640000  -5.0670000 -15.3050000  26.0900000
  -5.1330000 -16.8850000  26.9430000  -4.1430000 -16.9040000  25.0930000
  -3.7620000 -17.7950000  25.3400000  -3.6460000 -16.2710000  24.0210000
  -4.0540000 -15.0390000  23.7000000  -4.7390000 -14.5790000  24.2650000
  -3.6720000 -14.5830000  22.8960000  -2.7410000 -16.8860000  23.2540000
  -2.4410000 -17.8120000  23.4840000  -2.3680000 -16.4180000  22.4530000
  -9.3250000 -18.1250000  26.4640000  -8.3450000 -18.8580000  26.5520000
 -10.5540000 -18.5270000  26.8520000 -11.2830000 -17.8440000  26.8970000
 -10.8620000 -19.9030000  27.2700000 -10.2140000 -20.1930000  28.1110000
 -12.3380000 -20.0080000  27.7240000 -12.4610000 -19.3010000  28.5570000
 -12.9530000 -19.6810000  26.8720000 -12.7900000 -21.4210000  28.1740000
 -12.5420000 -22.1390000  27.3790000 -12.2270000 -21.6730000  29.0850000
 -14.2890000 -21.5270000  28.4800000 -15.0480000 -20.5720000  28.3240000
 -14.7280000 -22.7110000  28.9080000 -15.6970000 -22.8340000  29.1220000
 -14.0860000 -23.4710000  29.0130000 -10.5670000 -20.8800000  26.1210000
 -11.0160000 -20.6250000  25.0080000  -9.8110000 -21.9500000  26.4140000
  -9.4280000 -21.9640000  27.3380000  -9.5070000 -23.0710000  25.5190000
  -8.8790000 -23.7650000  26.0970000 -10.4690000 -23.5520000  25.2900000
  -8.7910000 -22.7280000  24.1980000  -8.6010000 -23.6420000  23.3990000
  -8.4240000 -21.4580000  23.9340000  -8.5970000 -20.7790000  24.6480000
  -7.8770000 -20.9960000  22.6520000  -8.4610000 -21.3560000  21.7920000
  -7.7810000 -19.4410000  22.5730000  -7.2810000 -19.1110000  23.4950000
  -7.0180000 -18.8900000  21.3470000  -7.5180000 -19.2200000  20.4250000
  -7.0070000 -17.7910000  21.3850000  -5.9850000 -19.2670000  21.3580000
  -9.1780000 -18.8040000  22.6250000  -9.6730000 -19.0810000  23.5680000
  -9.0850000 -17.7090000  22.5670000  -9.7780000 -19.1650000  21.7770000
  -6.5050000 -21.6210000  22.3520000  -6.3420000 -22.2190000  21.2890000
  -5.5760000 -21.5340000  23.3190000  -5.7660000 -20.9110000  24.0780000
  -4.2640000 -22.1880000  23.2680000  -3.7750000 -21.9110000  22.3230000
  -3.3370000 -21.7930000  24.4380000  -3.8150000 -22.2180000  25.3330000
  -2.3450000 -22.2490000  24.3020000  -3.1830000 -20.2830000  24.6120000
  -2.6890000 -19.6470000  23.6580000  -3.5000000 -19.7840000  25.7140000
  -4.3660000 -23.7160000  23.1640000  -3.6070000 -24.3000000  22.3950000
  -5.3280000 -24.3260000  23.8800000  -5.8170000 -23.7700000  24.5520000
  -5.5970000 -25.7630000  23.8410000  -4.6510000 -26.3100000  23.9700000
  -6.5770000 -26.1970000  24.9600000  -6.3080000 -25.7280000  25.9180000
  -7.5330000 -25.7840000  24.6060000  -6.7160000 -27.7120000  25.1550000
  -5.7390000 -28.4380000  24.8650000  -7.7700000 -28.1120000  25.6960000
  -6.0620000 -26.2340000  22.4490000  -5.5270000 -27.2260000  21.9640000
  -7.0040000 -25.5060000  21.8200000  -7.4010000 -24.7500000  22.3400000
  -7.5560000 -25.8050000  20.4950000  -7.9970000 -26.8100000  20.5660000
  -8.6720000 -24.8020000  20.1620000  -8.2450000 -23.7920000  20.0790000
  -9.1420000 -25.0800000  19.2070000  -9.4280000 -24.8150000  20.9610000
  -6.4990000 -25.8540000  19.3790000  -6.4780000 -26.8240000  18.6200000
  -5.6220000 -24.8370000  19.3350000  -5.8140000 -24.0410000  19.9090000
  -4.5060000 -24.7590000  18.3920000  -4.8330000 -25.1000000  17.3990000
  -4.0000000 -23.3040000  18.2730000  -3.8760000 -22.8200000  19.2530000
  -3.0250000 -23.3620000  17.7680000  -4.8700000 -22.3740000  17.4350000
  -4.8350000 -22.4470000  16.0270000  -4.1710000 -23.1730000  15.5350000
  -5.6340000 -21.6070000  15.2620000  -5.5820000 -21.6570000  14.1640000
  -6.4960000 -20.7070000  15.8760000  -7.1130000 -20.0340000  15.2620000
  -6.5800000 -20.6550000  17.2610000  -7.2780000 -19.9520000  17.7400000
  -5.7870000 -21.4860000  18.0400000  -5.8700000 -21.4560000  19.1360000
  -3.3620000 -25.7530000  18.6830000  -2.8220000 -26.3080000  17.7270000
  -3.0230000 -25.9920000  19.9680000  -3.4930000 -25.4730000  20.6820000
  -1.9730000 -26.9450000  20.3730000  -1.0750000 -26.7680000  19.7630000
  -1.5940000 -26.7960000  21.8630000  -2.5460000 -26.8530000  22.4110000
  -1.0040000 -27.7030000  22.0600000  -0.8160000 -25.5740000  22.3260000
  -0.6290000 -24.4310000  21.5170000  -0.9990000 -24.4250000  20.4810000
   0.0300000 -23.3010000  22.0350000   0.1830000 -22.4170000  21.3980000
   0.5110000 -23.3070000  23.3600000   1.0970000 -22.1950000  23.8880000
   1.1330000 -21.4300000  23.2450000   0.3700000 -24.4590000  24.1520000
   0.7760000 -24.4800000  25.1740000  -0.2920000 -25.5870000  23.6350000
  -0.4050000 -26.4900000  24.2530000  -2.3760000 -28.4060000  20.1360000
  -1.5260000 -29.1990000  19.7360000  -3.6550000 -28.7350000  20.3870000
  -4.2440000 -28.0350000  20.7900000  -4.2170000 -30.0640000  20.1560000
  -3.5680000 -30.8110000  20.6360000  -5.6510000 -30.2110000  20.7310000
  -6.2450000 -29.3970000  20.2910000  -6.3440000 -31.5570000  20.4570000
  -5.7500000 -32.3720000  20.8970000  -7.3480000 -31.5510000  20.9060000
  -6.4300000 -31.7110000  19.3710000  -5.5910000 -30.0610000  22.1340000
  -6.5100000 -30.1540000  22.5180000  -4.2480000 -30.4150000  18.6600000
  -3.9490000 -31.5580000  18.3300000  -4.5340000 -29.4310000  17.7880000
  -4.8730000 -28.5640000  18.1530000  -4.5020000 -29.6060000  16.3350000
  -5.0630000 -30.5080000  16.0490000  -5.1490000 -28.3840000  15.6460000
  -6.1360000 -28.3440000  16.1300000  -4.5910000 -27.4640000  15.8750000
  -5.3310000 -28.5080000  14.1150000  -4.3380000 -28.6510000  13.6640000
  -6.2450000 -29.6860000  13.7300000  -7.2380000 -29.5430000  14.1810000
  -6.3430000 -29.7320000  12.6350000  -5.8080000 -30.6260000  14.0980000
  -5.8270000 -27.1890000  13.4960000  -5.0960000 -26.3920000  13.6960000
  -5.9440000 -27.3140000  12.4090000  -6.7960000 -26.9170000  13.9400000
  -3.0890000 -29.9020000  15.7960000  -2.9570000 -30.7470000  14.9140000
  -2.0640000 -29.2450000  16.3640000  -2.3000000 -28.5110000  17.0020000
  -0.6460000 -29.4850000  16.0720000  -0.4130000 -29.4990000  14.9970000
   0.2400000 -28.4070000  16.7580000  -0.1340000 -28.3130000  17.7880000
   1.7560000 -28.6960000  16.7860000   2.1320000 -28.7890000  15.7560000
   2.2780000 -27.8710000  17.2930000   1.9410000 -29.6340000  17.3300000
  -0.0040000 -27.0360000  16.1130000  -1.0620000 -26.7600000  16.2280000
   0.6270000 -26.2810000  16.6050000   0.2480000 -27.0830000  15.0430000
  -0.1840000 -30.8910000  16.5060000   0.5620000 -31.5290000  15.7650000
  -0.6810000 -31.3580000  17.6640000  -1.1610000 -30.6990000  18.2420000
  -0.4840000 -32.7140000  18.1760000   0.5780000 -32.9950000  18.1210000
  -0.9330000 -32.7690000  19.6490000  -1.9280000 -32.3040000  19.7060000
  -1.0090000 -33.8300000  19.9280000   0.0230000 -32.0510000  20.6160000
   0.9910000 -32.5740000  20.5970000   0.1580000 -31.0170000  20.2650000
  -0.5220000 -32.0370000  22.0500000  -1.5340000 -31.6050000  22.0480000
  -0.5640000 -33.0680000  22.4310000   0.3290000 -31.2390000  22.9440000
   1.3070000 -31.4330000  22.8690000  -0.0740000 -30.3100000  23.8280000
   0.8420000 -29.7010000  24.5890000   1.8080000 -29.9420000  24.4930000
   0.5570000 -29.0080000  25.2510000  -1.3660000 -29.9860000  23.9710000
  -2.0570000 -30.4420000  23.4100000  -1.6330000 -29.2900000  24.6380000
  -1.1920000 -33.7860000  17.3230000  -0.6160000 -34.8600000  17.1630000
  -2.3770000 -33.4820000  16.7570000  -2.8330000 -32.6460000  17.0610000
  -3.0820000 -34.3560000  15.8100000  -3.0920000 -35.3840000  16.2010000
  -4.5460000 -33.8920000  15.5980000  -4.5000000 -32.8200000  15.3550000
  -4.9250000 -34.4480000  14.7280000  -5.4950000 -34.1070000  16.7990000
  -5.0660000 -33.5360000  17.6360000  -6.4740000 -33.6830000  16.5300000
  -5.6700000 -35.5670000  17.2160000  -5.8940000 -36.4030000  16.3120000
  -5.5940000 -35.8250000  18.4370000  -2.3530000 -34.4910000  14.4600000
  -2.3430000 -35.5910000  13.9100000  -1.7340000 -33.4010000  13.9660000
  -1.8820000 -32.5290000  14.4330000  -0.9100000 -33.4080000  12.7490000
  -1.4080000 -33.9710000  11.9460000  -0.5670000 -31.9750000  12.2430000
  -0.1450000 -31.4270000  13.0990000   0.4290000 -31.9300000  11.0600000
   0.0070000 -32.4770000  10.2040000   0.6110000 -30.8840000  10.7720000
   1.3780000 -32.3970000  11.3620000  -1.8320000 -31.1930000  11.8410000
  -2.1150000 -31.5140000  10.8280000  -2.6310000 -31.4630000  12.5470000
  -1.6290000 -29.6750000  11.8580000  -0.8310000 -29.4040000  11.1520000
  -2.5640000 -29.1770000  11.5630000  -1.3460000 -29.3540000  12.8710000
   0.3980000 -34.1880000  12.9520000   0.7830000 -34.9520000  12.0670000
   1.0270000 -34.0080000  14.1260000   0.6690000 -33.2900000  14.7230000
   2.2400000 -34.7080000  14.5360000   3.0340000 -34.5710000  13.7870000
   2.7260000 -34.1340000  15.8810000   2.7490000 -33.0400000  15.7720000
   1.9750000 -34.4110000  16.6360000   4.1130000 -34.6350000  16.3280000
   4.0980000 -35.7350000  16.3080000   4.8560000 -34.2660000  15.6050000
   4.4880000 -34.1550000  17.7370000   3.6610000 -34.3970000  18.4210000
   5.3960000 -34.6870000  18.0580000   4.7430000 -32.7070000  17.7990000
   5.1210000 -32.2990000  16.9680000   4.5040000 -31.9090000  18.8550000
   3.9490000 -32.3820000  19.9780000   3.7030000 -33.3490000  20.0410000
   3.7830000 -31.7660000  20.7480000   4.8380000 -30.6170000  18.7830000
   5.2600000 -30.2590000  17.9500000   4.6650000 -30.0150000  19.5620000
   2.0400000 -36.2340000  14.5930000   2.8880000 -36.9510000  14.0690000
   0.9090000 -36.6870000  15.1710000   0.3400000 -36.0130000  15.6410000
   0.5110000 -38.0970000  15.2340000   1.3620000 -38.7080000  15.5700000
  -0.6580000 -38.2910000  16.2260000  -1.4490000 -37.5980000  15.9040000
  -1.0020000 -39.3270000  16.0930000  -0.3340000 -38.0450000  17.7130000
   0.3200000 -37.1600000  17.7330000  -1.2940000 -37.8020000  18.1910000
   0.3430000 -39.2020000  18.4790000   0.2020000 -38.9730000  19.5460000
  -0.2300000 -40.1040000  18.2200000   1.8360000 -39.4450000  18.2000000
   2.1970000 -40.2020000  18.9120000   1.9330000 -39.8320000  17.1750000
   2.6400000 -38.2160000  18.3400000   2.2920000 -37.5170000  17.7160000
   2.5790000 -37.8830000  19.2810000   3.5950000 -38.4150000  18.1180000
   0.1440000 -38.7050000  13.8730000   0.4510000 -39.8750000  13.6590000
  -0.4890000 -37.9210000  12.9830000  -0.7820000 -37.0040000  13.2880000
  -0.8870000 -38.3680000  11.6450000  -1.3540000 -39.3520000  11.6980000
  -1.9000000 -37.3750000  11.0540000  -2.7470000 -37.3040000  11.7360000
  -1.4590000 -36.3880000  10.9190000  -2.4580000 -37.7850000   9.7140000
  -1.9720000 -37.2720000   8.5070000  -2.6610000 -37.9070000   7.5690000
  -2.4100000 -37.6500000   6.5400000  -3.5550000 -38.7630000   8.0640000
  -4.1980000 -39.3550000   7.5580000  -3.4490000 -38.7020000   9.4420000
  -4.0940000 -39.3210000  10.0660000   0.3060000 -38.6110000  10.7000000
   0.2290000 -39.5140000   9.8690000   1.3920000 -37.8360000  10.8680000
   1.2900000 -37.0450000  11.4710000   2.6590000 -38.0050000  10.1510000
   2.4740000 -38.2070000   9.0860000   3.4860000 -36.7040000  10.2710000
   3.4740000 -36.4070000  11.3300000   4.5160000 -36.9440000   9.9700000
   2.9560000 -35.5420000   9.4060000   2.7010000 -35.9540000   8.4180000
   2.0450000 -35.1570000   9.8890000   3.9700000 -34.3970000   9.2380000
   4.8750000 -34.8300000   8.7880000   3.5260000 -33.6710000   8.5410000
   4.3390000 -33.6870000  10.5480000   3.4470000 -33.1660000  10.9270000
   4.6590000 -34.4450000  11.2780000   5.4270000 -32.7120000  10.3420000
   6.2380000 -33.1850000   9.9980000   5.1370000 -32.0240000   9.6770000
   5.6440000 -32.2660000  11.2100000   3.4880000 -39.2380000  10.5860000
   4.5230000 -39.4920000   9.9700000   3.0420000 -39.9820000  11.6150000
   2.1910000 -39.6830000  12.0470000   3.7440000 -41.1410000  12.1860000
   4.3310000 -41.6480000  11.4060000   4.7090000 -40.6780000  13.3100000
   5.2900000 -41.5650000  13.6030000   5.3800000 -39.9350000  12.8540000
   4.0370000 -40.0650000  14.5640000   3.2660000 -39.3840000  14.1750000
   3.5580000 -40.8710000  15.1380000   4.9920000 -39.2880000  15.4760000
   4.6990000 -39.2430000  16.6910000   5.9750000 -38.7130000  14.9570000
   2.6830000 -42.1150000  12.6710000   1.5860000 -42.2740000  12.1330000
   2.8811868 -42.8087347  13.6659340  -6.4580000 -21.6500000  -1.3160000
  -4.6580000 -21.8940000  -1.2380000  -4.2779206 -21.9210140  -2.2592296
  -4.4609966 -22.8589873  -0.7709997  -3.8780000 -20.8110000  -0.4690000
  -3.6579069 -19.9966457  -1.1592797  -4.5127455 -20.4271700   0.3296693
  -2.5460000 -21.2900000   0.1490000  -1.9320000 -22.1920000  -0.4180000
  -2.0890000 -20.7430000   1.3070000  -2.7640000 -19.6440000   2.0000000
  -2.7790000 -18.2650000   1.2990000  -1.5610000 -17.4150000   1.7300000
  -1.8310000 -15.9080000   1.5500000  -2.7558175 -15.6400587   2.0609012
  -1.9239859 -15.6800314   0.4881695  -1.0038851 -15.3379146   1.9730645
  -0.2570000 -17.8250000   1.0170000  -0.0859464 -18.8923465   1.1570431
   0.5780117 -17.2649943   1.4380096  -0.3409736 -17.6070601  -0.0476833
  -1.4220727 -17.5749131   2.7165131  -2.7469954 -18.4130546   0.2195763
  -3.6961161 -17.7379300   1.5620502  -2.2731768 -19.5150571   2.9646587
  -3.7955550 -19.9418664   2.1819088  -1.0930000 -21.4310000   2.1460000
  -0.3502206 -20.7042196   2.4748906  -0.5991644 -22.1987498   1.5521922
  -1.7180000 -22.0800000   3.3730000  -1.4610000 -21.8270000   4.7240000
  -0.7922016 -21.0462273   5.0549119  -2.1390000 -22.6660000   5.6100000
  -2.0399803 -22.6139914   6.6841928  -2.9500000 -23.5700000   4.9540000
  -3.5448385 -24.3207993   5.4528663  -2.9000000 -23.3580000   3.2400000
 -14.8200000 -14.3610000   8.0780000 -16.3550000 -14.4860000   8.1950000
 -16.8850000 -15.9170000   8.0540000 -17.1490000 -13.4290000   7.4160000
 -16.6490000 -14.0850000  10.0020000 -15.7750000 -15.0970000  11.3170000
 -14.2770000 -14.9410000  11.1320000 -16.4340000 -16.4510000  11.5040000
 -16.2230000 -14.1570000  12.6610000 -15.7520000 -12.7970000  13.5670000
 -16.0120000 -11.5620000  12.7340000 -14.4100000 -13.0960000  14.1960000
 -16.9620000 -12.9440000  14.7850000 -18.2990000 -12.6130000  14.4490000
 -18.8820000 -13.5280000  14.3430000 -18.3110000 -12.0650000  13.5070000
 -18.9140000 -11.7400000  15.5570000 -18.1060000 -10.4910000  15.9350000
 -18.9550000  -9.4170000  16.3090000 -18.4220000  -8.6520000  16.5390000
 -17.1810000 -10.9780000  17.0530000 -16.7960000 -10.0310000  18.0270000
 -16.2410000  -9.3610000  17.6210000 -16.2960000 -11.4470000  16.6230000
 -17.5020000 -10.1860000  15.0810000 -19.9230000 -11.4450000  15.2680000
 -18.9700000 -12.5080000  16.7550000 -18.0640000 -12.0400000  17.7070000
 -18.6490000 -11.5320000  18.4740000 -17.3470000 -13.1860000  18.3930000
 -16.3460000 -13.9530000  17.9130000 -15.9610000 -13.8590000  16.9080000
 -15.8830000 -14.8230000  18.7780000 -16.5850000 -14.5720000  19.8940000
 -16.4750000 -15.1970000  21.1980000 -15.7520000 -16.1240000  21.5430000
 -17.3680000 -14.6040000  22.0550000 -17.3730000 -14.9500000  23.0040000
 -18.2610000 -13.5890000  21.7720000 -19.0370000 -13.1810000  22.7750000
 -18.9530000 -13.6100000  23.6850000 -19.7090000 -12.4420000  22.6250000
 -18.3620000 -13.0480000  20.6070000 -17.4950000 -13.5750000  19.6940000
 -13.2520000 -13.9760000   9.5060000
