default_name
 23290
  55.8145637  28.7736223  34.6206009  56.6745637  29.2086223  34.8866009
  55.9785637  28.1986223  33.8186009  55.3865637  28.3836223  35.4366009
  54.8995637  29.8176223  34.1656009  54.1315637  30.0096223  34.9296009
  55.6825637  31.1236223  33.9156009  56.2375637  31.3516223  34.8376009
  56.3925637  30.9256223  33.0996009  54.7955637  32.3216223  33.5426009
  54.5395637  32.2156223  32.4786009  53.8805637  32.2476223  34.1486009
  55.5615637  33.9436223  33.8136009  56.8335637  33.9396223  32.5246009
  56.3575637  33.8376223  31.5386009  57.3975637  34.8836223  32.5626009
  57.5195637  33.0956223  32.6896009  54.1185637  29.3216223  32.9406009
  54.7315637  28.8426223  31.9856009  52.7825637  29.4296223  33.0146009
  52.4115637  29.9596223  33.7776009  51.8455637  28.8546223  32.0486009
  52.3495637  28.6256223  31.0976009  51.2265637  27.5416223  32.6136009
  50.7655637  27.8066223  33.5766009  50.1805637  26.8566223  31.7156009
  50.6405637  26.5906223  30.7526009  49.8135637  25.9456223  32.2106009
  49.3395637  27.5436223  31.5416009  52.2495637  26.5966223  32.8586009
  51.8475637  25.7556223  33.2216009  50.6965637  29.8426223  31.7896009
  50.1115637  30.3516223  32.7466009  50.3685637  30.0636223  30.5046009
  51.0065637  29.7496223  29.8016009  49.1805637  30.8056223  30.0806009
  48.9715637  31.6116223  30.7996009  49.3965637  31.4306223  28.6866009
  49.8325637  30.6586223  28.0356009  48.4125637  31.7266223  28.2946009
  50.3275637  32.6606223  28.7196009  49.8555637  33.3556223  29.4286009
  51.3035637  32.3426223  29.1136009  50.5245637  33.3616223  27.3716009
  51.4455637  34.2046223  27.3136009  49.7435637  33.0886223  26.4326009
  47.9325637  29.9116223  30.0986009  48.0235637  28.7286223  29.7716009
  46.7905637  30.5096223  30.4696009  46.8525637  31.4716223  30.7356009
  45.4865637  29.8556223  30.5376009  45.5155637  28.8916223  30.0076009
  45.1125637  29.5966223  32.0126009  45.3085637  30.5356223  32.5516009
  44.0355637  29.3766223  32.0396009  45.8755637  28.4656223  32.6746009
  45.4365637  27.1366223  32.5026009  44.5605637  26.9316223  31.8696009
  46.1115637  26.0766223  33.1336009  45.7665637  25.0416223  32.9956009
  47.2355637  26.3426223  33.9376009  47.8735637  25.3156223  34.5656009
  47.4555637  24.4256223  34.3826009  47.6905637  27.6676223  34.0956009
  48.5785637  27.8716223  34.7116009  47.0115637  28.7286223  33.4676009
  47.3665637  29.7616223  33.5956009  44.4545637  30.7616223  29.8606009
  44.0995637  31.7946223  30.4296009  43.9805637  30.3536223  28.6716009
  44.4575637  29.6016223  28.2176009  42.9025637  31.0266223  27.9496009
  42.9725637  32.1126223  28.1116009  42.9935637  30.7476223  26.4366009
  43.3435637  29.7136223  26.3016009  41.9855637  30.8506223  26.0096009
  43.9535637  31.7116223  25.7206009  43.7675637  32.7236223  26.1106009
  44.9815637  31.4076223  25.9666009  43.7705637  31.7096223  24.1976009
  44.1795637  30.7596223  23.8226009  42.6885637  31.7456223  24.0006009
  44.4615637  32.8826223  23.4816009  44.2615637  32.7896223  22.4036009
  44.0215637  33.8186223  23.8566009  45.9145637  32.8976223  23.7116009
  46.0975637  33.0796223  24.6776009  46.3015637  32.0106223  23.4606009
  46.3325637  33.6136223  23.1536009  41.5315637  30.6696223  28.5366009
  40.9515637  29.6456223  28.1796009  41.0495637  31.5476223  29.4246009
  41.6625637  32.2846223  29.7106009  39.7235637  31.4786223  30.0266009
  39.3695637  30.4376223  30.0496009  39.7845637  32.0136223  31.4816009
  39.9725637  33.0856223  31.3226009  38.8155637  31.8826223  31.9856009
  40.9105637  31.4176223  32.3656009  41.8785637  31.7266223  31.9446009
  40.8095637  31.8946223  33.8226009  39.8415637  31.5856223  34.2446009
  41.6245637  31.4496223  34.4116009  40.8905637  32.9916223  33.8556009
  40.9855637  29.8856223  32.3106009  41.1745637  29.5636223  31.2756009
  41.8025637  29.5346223  32.9586009  40.0335637  29.4586223  32.6586009
  38.7435637  32.2966223  29.1716009  39.1485637  33.2546223  28.5136009
  37.4665637  31.9036223  29.1996009  37.2455637  31.0906223  29.7386009
  36.3765637  32.6086223  28.5326009  36.6985637  33.6106223  28.2136009
  35.8465637  31.8376223  27.2886009  35.4345637  30.8796223  27.6386009
  34.7615637  32.6126223  26.5206009  35.1735637  33.5706223  26.1706009
  34.4285637  32.0186223  25.6566009  33.9065637  32.8036223  27.1856009
  36.9595637  31.4816223  26.2926009  37.7075637  30.8456223  26.7896009
  36.5275637  30.9406223  25.4376009  37.4415637  32.4036223  25.9366009
  35.2255637  32.7106223  29.5416009  34.9335637  31.7236223  30.2116009
  34.5815637  33.8816223  29.6206009  34.9345637  34.6486223  29.0856009
  33.4045637  34.1046223  30.4546009  33.2085637  33.2336223  31.0976009
  33.5555637  35.3626223  31.3556009  33.6065637  36.2456223  30.7016009
  32.3845637  35.5226223  32.3406009  32.3325637  34.6406223  32.9956009
  32.5395637  36.4236223  32.9516009  31.4435637  35.6186223  31.7796009
  34.8715637  35.3266223  32.1516009  35.7215637  35.2926223  31.4546009
  34.9475637  36.2276223  32.7776009  34.8875637  34.4336223  32.7936009
  32.2005637  34.2776223  29.5146009  32.1725637  35.2306223  28.7346009
  31.2605637  33.3206223  29.5886009  31.3985637  32.6146223  30.2826009
  30.0745637  33.2316223  28.7336009  29.9105637  34.0976223  28.0756009
  30.0795637  31.9386223  27.8636009  29.1715637  31.9416223  27.2426009
  31.3155637  31.8506223  26.9596009  32.2245637  31.8476223  27.5796009
  31.2725637  30.9246223  26.3686009  31.3375637  32.7166223  26.2816009
  29.8905637  30.6156223  28.6336009  28.9235637  30.6306223  29.1586009
  29.9095637  29.7736223  27.9266009  30.7025637  30.4976223  29.3656009
  28.7855637  33.2276223  29.5766009  28.8395637  32.9936223  30.7846009
  27.6505637  33.4776223  28.9056009  27.7135637  33.6406223  27.9206009
  26.3345637  33.5236223  29.5306009  25.8365637  32.5506223  29.4066009
  26.4465637  33.7426223  30.6026009  25.4685637  34.6126223  28.8866009
  25.9325637  35.4136223  28.0746009  24.1865637  34.6246223  29.2866009
  23.9435637  33.8966223  29.9266009  23.1325637  35.5416223  28.8446009
  23.0105637  35.4296223  27.7576009  21.8265637  35.1196223  29.5306009
  21.9305637  35.2346223  30.6196009  21.0015637  35.7536223  29.1726009
  21.6095637  34.0676223  29.2926009  23.4235637  37.0246223  29.1286009
  24.2545637  37.3376223  29.9806009  22.7145637  37.9096223  28.4106009
  22.1385637  37.5306223  27.6866009  22.8175637  39.3646223  28.5256009
  23.8685637  39.6756223  28.4266009  21.9905637  40.0516223  27.4066009
  22.2645637  39.5426223  26.4706009  20.9355637  39.8446223  27.6406009
  22.1915637  41.5646223  27.2436009  23.0165637  42.1536223  27.9726009
  21.4995637  42.1246223  26.3686009  22.4285637  39.8426223  29.9416009
  21.2815637  39.6626223  30.3546009  23.4025637  40.4476223  30.6396009
  24.3205637  40.4446223  30.2436009  23.2075637  41.1036223  31.9286009
  23.9225637  41.9376223  31.9946009  22.1815637  41.4996223  31.9536009
  23.4135637  40.1746223  33.1296009  22.9995637  40.5466223  34.2266009
  24.0265637  38.9876223  32.9616009  24.2205637  38.6816223  32.0296009
  24.3485637  38.0806223  34.0746009  23.6065637  38.0496223  34.8866009
  24.6335637  36.6296223  33.6066009  24.9355637  36.0356223  34.4816009
  23.4005637  35.9916223  32.9566009  23.0985637  36.5846223  32.0806009
  23.6415637  34.9666223  32.6386009  22.5755637  35.9656223  33.6836009
  25.8915637  36.4726223  32.7346009  26.7745637  36.8036223  33.3006009
  26.0125637  35.4166223  32.4516009  25.7875637  37.0856223  31.8266009
  25.5365637  38.5526223  34.9396009  25.6595637  38.0816223  36.0706009
  26.3505637  39.4866223  34.4186009  26.1955637  39.7676223  33.4716009
  27.4415637  40.1096223  35.1536009  27.4425637  41.1886223  34.9376009
  27.2775637  39.9516223  36.2296009  28.8015637  39.5226223  34.7656009
  29.6685637  39.4256223  35.6326009  28.9955637  39.1366223  33.4886009
  28.2045637  39.1836223  32.8776009  30.2675637  38.6296223  32.9456009
  30.5875637  37.7416223  33.5106009  30.0995637  38.2366223  31.4626009
  29.8605637  39.1576223  30.9116009  31.0705637  37.8476223  31.1216009
  29.0105637  37.1896223  31.2036009  29.2585637  36.2986223  31.7986009
  28.0565637  37.6106223  31.5536009  28.8845637  36.7976223  29.7256009
  29.8915637  36.5066223  29.3916009  28.2195637  35.9216223  29.6896009
  28.3365637  37.8936223  28.8036009  28.9495637  38.7976223  28.9346009
  28.4155637  37.5456223  27.7636009  26.9365637  38.2046223  29.1096009
  26.8685637  38.5536223  30.0446009  26.6015637  38.8966223  28.4696009
  26.3845637  37.3756223  29.0226009  31.4025637  39.6556223  33.0516009
  32.5015637  39.2986223  33.4866009  31.1005637  40.9056223  32.6666009
  30.1955637  41.0496223  32.2656009  32.0235637  42.0406223  32.7196009
  32.9915637  41.7526223  32.2846009  31.4615637  43.2336223  31.9246009
  30.4485637  43.4656223  32.2846009  32.1125637  44.1086223  32.0716009
  31.4105637  42.9146223  30.5616009  31.0455637  43.6926223  30.0506009
  32.3445637  42.4586223  34.1516009  33.5135637  42.6936223  34.4446009
  31.3135637  42.4986223  35.0106009  30.3925637  42.3896223  34.6356009
  31.4495637  42.8066223  36.4256009  31.9795637  43.7696223  36.4796009
  30.0615637  42.9746223  37.0556009  29.5215637  42.0166223  37.0166009
  30.1695637  43.2916223  38.1036009  29.4955637  43.7366223  36.4996009
  32.3035637  41.7826223  37.1976009  33.1145637  42.1986223  38.0226009
  32.1455637  40.4766223  36.8996009  31.3915637  40.2406223  36.2866009
  32.9665637  39.3846223  37.4476009  32.9495637  39.4156223  38.5466009
  32.4105637  38.0186223  36.9826009  32.0495637  38.2186223  35.9626009
  33.2175637  37.2716223  36.9456009  31.2535637  37.4796223  37.8396009
  30.4995637  38.2706223  37.9656009  30.6085637  36.2626223  37.1576009
  31.3615637  35.4706223  37.0316009  29.7835637  35.8876223  37.7806009
  30.2185637  36.5576223  36.1726009  31.7185637  37.1406223  39.2696009
  32.1155637  38.0466223  39.7506009  30.8665637  36.7596223  39.8516009
  32.5055637  36.3736223  39.2276009  34.4425637  39.4926223  37.0496009
  35.3055637  39.3106223  37.9076009  34.6925637  39.7846223  35.7626009
  33.9165637  39.8536223  35.1356009  36.0385637  39.9276223  35.2166009
  36.6545637  39.0846223  35.5626009  36.0565637  39.9506223  33.6656009
  35.4885637  40.8366223  33.3466009  37.4675637  40.0006223  33.0576009
  38.0355637  39.1146223  33.3756009  37.3935637  40.0146223  31.9606009
  37.9835637  40.9096223  33.4016009  35.4245637  38.7876223  33.1686009
  35.4365637  38.8036223  32.1686009  36.7415637  41.1866223  35.7566009
  37.8275637  41.0636223  36.3076009  36.0935637  42.3596223  35.6636009
  35.2335637  42.3656223  35.1526009  36.6255637  43.6396223  36.1466009
  37.6785637  43.7896223  35.8656009  35.7725637  44.8366223  35.6246009
  34.7225637  44.5866223  35.8346009  36.1095637  46.2106223  36.2476009
  37.1595637  46.4616223  36.0376009  35.4555637  46.9806223  35.8136009
  35.9545637  46.1686223  37.3356009  35.8555637  44.9416223  34.0816009
  36.8065637  45.4366223  33.8376009  35.8635637  43.9166223  33.6826009
  34.6935637  45.7266223  33.4526009  34.6855637  46.7526223  33.8506009
  34.8205637  45.7586223  32.3606009  33.7415637  45.2316223  33.6956009
  36.7885637  43.6966223  37.6856009  37.6865637  44.3926223  38.1536009
  35.9985637  42.9116223  38.4436009  35.1655637  42.5496223  38.0256009
  36.2085637  42.6936223  39.8776009  36.4105637  43.6556223  40.3716009
  34.9555637  42.0566223  40.5266009  34.1395637  42.7786223  40.3726009
  34.7505637  41.1446223  39.9476009  35.0525637  41.7026223  42.0286009
  34.0815637  41.2906223  42.3416009  35.8325637  40.9366223  42.1536009
  35.3905637  42.8976223  42.9266009  36.5255637  43.0476223  43.3706009
  34.4085637  43.7536223  43.2066009  34.5905637  44.5456223  43.7896009
  33.4935637  43.6006223  42.8326009  37.5045637  41.9116223  40.1566009
  38.3195637  42.3966223  40.9376009  37.6985637  40.7566223  39.4896009
  36.9405637  40.4166223  38.9326009  38.9085637  39.9276223  39.6006009
  39.0445637  39.5966223  40.6406009  38.7785637  38.6756223  38.6956009
  37.8685637  38.2096223  39.1016009  38.6095637  38.9546223  37.6446009
  39.9575637  37.6696223  38.7816009  40.8965637  38.2416223  38.8236009
  39.8515637  36.7666223  40.0206009  38.9125637  36.1946223  39.9786009
  40.7035637  36.0716223  40.0426009  39.8615637  37.3876223  40.9286009
  40.1205637  36.8486223  37.4926009  40.3135637  37.5256223  36.6476009
  40.9655637  36.1536223  37.6046009  39.2005637  36.2776223  37.3016009
  40.2005637  40.7056223  39.2756009  41.1645637  40.6206223  40.0366009
  40.1825637  41.4266223  38.1436009  39.3105637  41.4766223  37.6566009
  41.3415637  42.0916223  37.5576009  42.3155637  41.6096223  37.7296009
  41.1405637  42.3276223  36.0276009  40.2055637  42.8946223  35.9116009
  42.2955637  43.0916223  35.3386009  43.2305637  42.5246223  35.4536009
  42.0695637  43.2116223  34.2686009  42.4085637  44.0826223  35.8026009
  40.7655637  41.0396223  35.2406009  40.0075637  40.5336223  35.8576009
  40.3015637  41.3946223  34.3086009  41.8885637  40.0576223  34.9076009
  42.3525637  39.7016223  35.8386009  41.4755637  39.2016223  34.3536009
  42.6465637  40.5616223  34.2906009  41.6435637  43.4436223  38.2416009
  42.7925637  43.6676223  38.6186009  40.6285637  44.3196223  38.3686009
  39.7125637  44.0006223  38.1236009  40.8005637  45.7336223  38.7336009
  41.8695637  45.9906223  38.7606009  40.1005637  46.6336223  37.6846009
  39.0235637  46.4146223  37.7316009  40.2755637  47.6786223  37.9816009
  40.6075637  46.4166223  36.2406009  41.6795637  46.6636223  36.2336009
  40.4765637  45.3506223  36.0016009  39.9055637  47.2506223  35.1626009
  39.2205637  48.3346223  35.5266009  39.9885637  46.9106223  33.9846009
  39.5365637  47.4516223  33.2756009  40.5085637  46.0936223  33.7356009
  40.3285637  46.0766223  40.1626009  40.5205637  47.2196223  40.5756009
  39.7615637  45.1076223  40.9066009  39.4665637  44.2996223  40.3956009
  39.3955637  45.2056223  42.3336009  38.9175637  44.2676223  42.6526009
  40.6475637  45.4536223  43.2246009  41.1215637  46.3786223  42.8656009
  40.3305637  45.5866223  44.2696009  41.6745637  44.3226223  43.1656009
  41.3725637  43.1956223  43.5466009  42.8975637  44.6146223  42.7186009
  43.5925637  43.8976223  42.6676009  43.1135637  45.5496223  42.4366009
  38.2605637  46.2106223  42.6366009  38.2325637  46.7666223  43.7356009
  37.3215637  46.4016223  41.6946009  37.4755637  45.9976223  40.7816009
  36.1435637  47.2526223  41.8876009  35.8565637  47.2506223  42.9396009
  36.4455637  48.7076223  41.4606009  35.6015637  49.3206223  41.7776009
  37.3545637  49.0646223  41.9436009  36.6205637  48.9466223  39.9796009
  35.5685637  49.2686223  39.1356009  36.0785637  49.4296223  37.9126009
  35.3635637  49.6816223  37.1286009  37.3925637  49.2506223  37.8676009
  38.0395637  49.3076223  37.0946009  37.7425637  48.9466223  39.1846009
  38.7845637  48.7536223  39.4406009  34.9295637  46.6746223  41.1566009
  35.0915637  45.9736223  40.1576009  33.7355637  47.0206223  41.6626009
  33.7385637  47.5046223  42.5376009  32.4495637  46.6946223  41.0566009
  32.5345637  45.7886223  40.4386009  31.4175637  46.4376223  42.1686009
  31.7185637  45.5546223  42.7506009  31.3725637  47.3146223  42.8306009
  29.9955637  46.1796223  41.6886009  29.7245637  45.1006223  40.8196009
  30.5425637  44.4496223  40.4776009  28.4255637  44.8616223  40.3966009
  28.2185637  44.0216223  39.7176009  27.3885637  45.6786223  40.8266009
  26.3615637  45.4726223  40.4916009  27.6405637  46.7486223  41.6726009
  26.8095637  47.3916223  41.9996009  28.9335637  47.0096223  42.1066009
  29.1285637  47.8616223  42.7746009  31.9865637  47.8216223  40.1236009
  31.8605637  48.9606223  40.5726009  31.6895637  47.4676223  38.8656009
  31.9415637  46.5446223  38.5736009  31.0415637  48.3466223  37.8976009
  31.2915637  49.4056223  38.0596009  31.4305637  47.9616223  36.4406009
  31.2575637  46.8806223  36.3316009  30.6335637  48.7196223  35.3616009
  30.8055637  49.8006223  35.4696009  30.9645637  48.3936223  34.3646009
  29.5605637  48.5056223  35.4796009  32.9335637  48.1706223  36.1956009
  33.5095637  47.5426223  36.8906009  33.1785637  47.8916223  35.1606009
  33.1885637  49.2276223  36.3596009  29.5155637  48.2346223  38.0776009
  28.9345637  47.2106223  37.7146009  28.9105637  49.2906223  38.6466009
  29.5155637  50.0076223  38.9936009  27.4665637  49.4326223  38.8656009
  27.0505637  48.4946223  39.2636009  27.1955637  50.5636223  39.8846009
  27.8725637  50.4536223  40.7446009  27.4435637  51.4856223  39.3386009
  25.7485637  50.6376223  40.3806009  25.2955637  49.6316223  40.9726009
  25.1435637  51.7186223  40.2176009  26.6965637  49.6816223  37.5456009
  25.5295637  49.3046223  37.4426009  27.3765637  50.2976223  36.5646009
  28.3075637  50.5706223  36.8066009  26.8765637  50.6396223  35.2326009
  25.9225637  51.1816223  35.3126009  27.9035637  51.5486223  34.5066009
  28.8445637  50.9796223  34.4806009  27.5225637  51.6736223  33.4826009
  28.1595637  52.9396223  35.1356009  28.7315637  53.5386223  34.4126009
  27.1615637  53.3826223  35.2696009  28.8955637  52.9216223  36.4796009
  28.3965637  53.5826223  37.4166009  29.9295637  52.2206223  36.5676009
  26.5875637  49.3886223  34.3826009  27.1515637  48.3246223  34.6396009
  25.7385637  49.5616223  33.3596009  25.2595637  50.4376223  33.3096009
  25.4305637  48.5446223  32.3586009  25.9255637  47.5946223  32.6096009
  23.9015637  48.3126223  32.3266009  23.5755637  48.3746223  33.3756009
  23.4695637  49.1506223  31.7596009  23.4285637  46.9936223  31.7246009
  23.8215637  46.5786223  30.4296009  24.4935637  47.2156223  29.8356009
  23.3575637  45.3596223  29.8996009  23.6915637  45.0266223  28.9056009
  22.4775637  44.5586223  30.6516009  21.9835637  43.3996223  30.1366009
  22.3125637  43.2116223  29.2116009  22.0865637  44.9586223  31.9406009
  21.4105637  44.3236223  32.5316009  22.5605637  46.1706223  32.4746009
  22.2545637  46.4836223  33.4836009  25.9925637  49.0476223  31.0206009
  25.3645637  49.8786223  30.3636009  27.1715637  48.5256223  30.6556009
  27.6115637  47.9236223  31.3216009  27.8605637  48.7816223  29.3956009
  27.3005637  49.5196223  28.8026009  29.2785637  49.3436223  29.6736009
  29.1955637  50.2266223  30.3246009  29.7875637  48.5346223  30.2176009
  30.0875637  49.7066223  28.4206009  29.4625637  49.9446223  27.3626009
  31.3255637  49.7986223  28.5656009  27.9135637  47.4266223  28.6526009
  28.6665637  46.5536223  29.0916009  27.1035637  47.2406223  27.5816009
  26.1475637  48.1976223  27.0196009  26.6745637  49.1456223  26.8336009
  25.3475637  48.3616223  27.7566009  25.6325637  47.5516223  25.7366009
  26.2325637  47.8706223  24.8716009  24.5775637  47.8116223  25.5656009
  25.7875637  46.0636223  26.0006009  25.9295637  45.5096223  25.0606009
  24.9235637  45.6496223  26.5416009  27.0505637  45.9536223  26.8686009
  26.9155637  45.1596223  27.6176009  28.3215637  45.6726223  26.0486009
  28.7295637  46.5246223  25.2556009  28.9385637  44.5026223  26.2816009
  28.4815637  43.8586223  26.8956009  30.2185637  44.1036223  25.6816009
  30.9145637  44.9516223  25.6056009  30.8905637  42.9836223  26.5236009
  30.2035637  42.1256223  26.4876009  32.2925637  42.5366223  26.0746009
  32.9805637  43.3946223  26.1106009  32.6575637  41.7456223  26.7456009
  32.2435637  42.1496223  25.0456009  30.9755637  43.4136223  27.8706009
  31.4065637  42.6996223  28.4216009  30.0295637  43.5466223  24.2626009
  29.1025637  42.7666223  24.0456009  30.9405637  43.9066223  23.3476009
  31.5395637  44.6786223  23.5616009  31.0815637  43.2596223  22.0416009
  30.1405637  42.7836223  21.7286009  31.5605637  44.2386223  20.9326009
  32.4815637  44.7236223  21.2886009  31.8395637  43.5326223  19.5826009
  30.9195637  43.0476223  19.2256009  32.1735637  44.2746223  18.8416009
  32.6235637  42.7736223  19.7196009  30.5425637  45.3876223  20.7406009
  29.6265637  44.9416223  20.3256009  30.3295637  45.8006223  21.7376009
  31.0275637  46.5126223  19.8146009  31.2405637  46.1006223  18.8166009
  30.2475637  47.2836223  19.7336009  31.9435637  46.9596223  20.2286009
  32.0855637  42.1066223  22.2076009  31.6915637  40.9496223  22.0756009
  33.3335637  42.4556223  22.5756009  33.5845637  43.4136223  22.4346009
  34.3555637  41.5376223  23.0726009  33.9595637  41.0006223  23.9476009
  34.7745637  40.5026223  22.0066009  33.8605637  40.1046223  21.5426009
  35.3745637  41.0236223  21.2456009  35.5925637  39.3456223  22.5986009
  36.5565637  39.7276223  22.9656009  35.0245637  38.9186223  23.4386009
  35.8405637  38.2676223  21.5546009  35.0075637  37.3386223  21.4736009
  36.8555637  38.3956223  20.8376009  35.5595637  42.3446223  23.5806009
  36.0485637  43.2216223  22.8686009  36.0325637  41.9946223  24.7846009
  35.4725637  41.3426223  25.2956009  37.2435637  42.5206223  25.4236009
  37.8875637  42.9536223  24.6446009  36.9505637  43.6096223  26.4846009
  36.3135637  43.1396223  27.2486009  37.9085637  43.9046223  26.9376009
  36.2485637  44.8476223  25.9276009  36.9655637  45.6816223  25.3336009
  35.0175637  44.9576223  26.1106009  38.0195637  41.3646223  26.0626009
  37.4055637  40.3846223  26.4766009  39.3495637  41.5096223  26.1666009
  39.7825637  42.2446223  25.6436009  40.2105637  40.5826223  26.9046009
  39.5945637  39.8266223  27.4146009  41.1785637  39.8626223  25.9416009
  41.5185637  38.9416223  26.4386009  40.6135637  39.6026223  25.0346009
  42.3015637  40.6496223  25.5876009  42.8895637  40.1316223  24.9656009
  40.9295637  41.3196223  28.0416009  41.2085637  42.5146223  27.9306009
  41.2095637  40.5686223  29.1146009  40.9265637  39.6106223  29.0656009
  41.8685637  41.0346223  30.3296009  42.3435637  42.0106223  30.1536009
  40.8285637  41.1886223  31.4566009  40.3765637  40.1976223  31.6116009
  41.4015637  41.4736223  32.3506009  39.7315637  42.2126223  31.2106009
  38.5795637  41.8546223  30.4776009  38.4865637  40.8366223  30.0716009
  37.5535637  42.7926223  30.2646009  36.6545637  42.5056223  29.6996009
  37.6755637  44.0966223  30.7786009  36.6795637  45.0006223  30.5576009
  35.9225637  44.6246223  30.0236009  38.8235637  44.4606223  31.5116009
  38.9185637  45.4796223  31.9156009  39.8495637  43.5196223  31.7276009
  40.7445637  43.8036223  32.3006009  42.9435637  40.0196223  30.7346009
  42.7825637  38.8266223  30.4766009  44.0105637  40.5126223  31.3816009
  44.0525637  41.5016223  31.5216009  45.1495637  39.7026223  31.8146009
  44.9485637  38.6386223  31.6226009  46.4185637  40.1136223  31.0376009
  47.2365637  39.4766223  31.4056009  46.2285637  39.8886223  29.9776009
  46.8145637  41.5926223  31.1846009  46.0875637  42.1886223  30.6136009
  46.7425637  41.8506223  32.2516009  48.2295637  41.8936223  30.6806009
  48.9315637  41.1456223  31.0776009  48.2455637  41.8646223  29.5816009
  48.6615637  43.2266223  31.1226009  48.6685637  43.9436223  30.4256009
  49.0505637  43.5426223  32.3716009  49.1305637  42.6156223  33.3386009
  48.8975637  41.6646223  33.1356009  49.4225637  42.8796223  34.2576009
  49.3545637  44.8136223  32.6576009  49.2905637  45.5126223  31.9446009
  49.6445637  45.0596223  33.5826009  45.3505637  39.8136223  33.3346009
  45.1745637  40.8946223  33.8976009  45.7655637  38.6996223  33.9596009
  45.7575637  37.8456223  33.4396009  46.1225637  38.6456223  35.3746009
  46.6415637  39.5716223  35.6636009  44.8595637  38.4956223  36.2466009
  44.2185637  39.3616223  36.0246009  44.3565637  37.5746223  35.9176009
  45.1185637  38.4256223  37.7606009  45.6445637  37.4856223  37.9836009
  45.7525637  39.2766223  38.0476009  43.8045637  38.4766223  38.5526009
  43.2755637  39.3916223  38.2466009  43.2135637  37.5966223  38.2586009
  43.9935637  38.4796223  40.0726009  42.9975637  38.4826223  40.5386009
  44.5255637  37.5576223  40.3516009  44.7585637  39.6476223  40.5406009
  44.9235637  40.2676223  39.7736009  44.2385637  40.1256223  41.2486009
  45.6335637  39.3436223  40.9176009  47.1415637  37.5336223  35.6266009
  46.8175637  36.3616223  35.4476009  48.3335637  37.9306223  36.0936009
  48.5605637  38.9016223  36.0126009  49.3405637  37.0286223  36.6396009
  49.2955637  36.0496223  36.1396009  50.7355637  37.6366223  36.4046009
  50.8775637  37.7196223  35.3166009  50.7345637  38.6416223  36.8506009
  51.8855637  36.8056223  37.0126009  51.7805637  36.8286223  38.1076009
  51.7705637  35.7716223  36.6556009  53.2885637  37.2966223  36.6456009
  53.4715637  37.8626223  35.4506009  54.2095637  37.1556223  37.4466009
  55.1295637  37.4686223  37.2106009  54.0395637  36.7276223  38.3336009
  49.0385637  36.7826223  38.1246009  48.9735637  37.7426223  38.8916009
  48.8715637  35.5056223  38.4936009  48.9625637  34.8056223  37.7856009
  48.5165637  35.0816223  39.8446009  49.0055637  35.6476223  40.6506009
  46.9725637  35.1426223  40.0596009  46.6725637  36.1916223  39.9176009
  46.1535637  34.2406223  39.1116009  46.4535637  33.1916223  39.2526009
  45.0825637  34.3496223  39.3356009  46.3415637  34.5376223  38.0696009
  46.5565637  34.8736223  41.5146009  47.0145637  35.6266223  42.1726009
  45.4615637  34.9306223  41.6006009  46.8955637  33.8706223  41.8146009
  49.0415637  33.6596223  40.0976009  48.9475637  32.8116223  39.2116009
  49.5865637  33.4186223  41.3006009  49.6765637  34.1756223  41.9476009
  50.0995637  32.1066223  41.6936009  50.4965637  31.5546223  40.8286009
  51.2135637  32.2066223  42.7746009  50.7925637  32.7536223  43.6316009
  51.7385637  30.8336223  43.2476009  52.1595637  30.2866223  42.3906009
  52.5195637  30.9806223  44.0076009  50.9105637  30.2536223  43.6816009
  52.3975637  33.0516223  42.2676009  52.0475637  34.0656223  42.0266009
  53.1705637  33.1066223  43.0486009  52.8215637  32.5866223  41.3656009
  48.9435637  31.2356223  42.2196009  48.2885637  31.6206223  43.1896009
  48.7245637  30.0886223  41.5596009  49.2995637  29.9156223  40.7596009
  47.7205637  29.0896223  41.9216009  47.2765637  29.2936223  42.9076009
  46.5845637  28.9686223  40.8536009  47.0655637  28.8136223  39.8766009
  45.5945637  27.8086223  41.1316009  45.1125637  27.9626223  42.1086009
  44.8265637  27.7846223  40.3446009  46.1405637  26.8536223  41.1396009
  45.8075637  30.2986223  40.6906009  45.1185637  30.3786223  41.5446009
  46.5455637  31.1136223  40.7376009  45.0135637  30.4036223  39.3806009
  44.2755637  29.5896223  39.3326009  44.4935637  31.3726223  39.3436009
  45.7025637  30.3246223  38.5266009  48.4565637  27.7446223  42.0386009
  48.9275637  27.2206223  41.0286009  48.5435637  27.2256223  43.2756009
  48.2955637  27.8536223  44.0136009  49.1475637  25.9306223  43.6336009
  49.2195637  25.8756223  44.7296009  48.3385637  24.7046223  43.1276009
  48.5255637  24.6936223  42.0436009  48.7435637  23.7866223  43.5776009
  46.8285637  24.7776223  43.3856009  46.4265637  25.3546223  44.4196009
  46.0835637  24.1896223  42.5726009  50.6495637  25.8336223  43.2806009
  51.1175637  24.7776223  42.8536009  51.3755637  26.9486223  43.4686009
  50.8815637  27.7556223  43.7926009  52.8165637  27.0636223  43.2366009
  53.1975637  27.8686223  43.8816009  53.2815637  26.1096223  43.5276009
  53.1855637  27.3756223  41.7736009  54.3635637  27.6166223  41.5086009
  52.2185637  27.3976223  40.8376009  51.2995637  27.1316223  41.1276009
  52.4285637  27.7446223  39.4306009  53.4955637  27.6726223  39.1716009
  51.6375637  26.7586223  38.5436009  52.0115637  25.7496223  38.7726009
  50.5815637  26.8346223  38.8426009  51.7635637  27.0226223  37.0256009
  51.4345637  28.0526223  36.8216009  52.8245637  26.9166223  36.7546009
  50.9275637  26.0496223  36.2006009  49.6995637  26.0126223  36.4286009
  51.5175637  25.3576223  35.3436009  51.9805637  29.1906223  39.1786009
  50.8635637  29.5446223  39.5536009  52.8325637  29.9676223  38.4916009
  53.7375637  29.5886223  38.3006009  52.5355637  31.3236223  38.0266009
  52.0175637  31.8946223  38.8106009  53.8405637  32.0736223  37.6466009
  54.3095637  31.5036223  36.8316009  53.6355637  33.5316223  37.2006009
  53.1665637  34.1026223  38.0146009  54.6095637  33.9796223  36.9526009
  52.9845637  33.5566223  36.3146009  54.7095637  32.0776223  38.7626009
  55.5535637  32.5586223  38.5256009  51.6025637  31.2666223  36.7976009
  52.0365637  30.8776223  35.7146009  50.3215637  31.6026223  37.0056009
  50.0805637  31.9746223  37.9016009  49.2545637  31.4126223  36.0246009
  49.6045637  30.7386223  35.2296009  48.0005637  30.7966223  36.6746009
  47.6355637  31.3946223  37.5226009  47.1855637  30.6516223  35.9506009
  48.3775637  29.1536223  37.3436009  47.1835637  28.9156223  37.7976009
  48.9175637  32.7626223  35.3746009  48.3805637  33.6406223  36.0496009
  49.2325637  32.8896223  34.0756009  49.7515637  32.1366223  33.6716009
  48.9275637  34.0516223  33.2366009  48.9145637  34.9676223  33.8446009
  50.0145637  34.2006223  32.1406009  50.3125637  33.1546223  31.9736009
  49.5825637  34.6096223  31.2156009  51.2525637  35.0296223  32.5396009
  50.9385637  36.0826223  32.5986009  51.8695637  34.6056223  33.8776009
  52.1845637  33.5536223  33.8196009  52.7435637  35.2376223  34.0956009
  51.1245637  34.7216223  34.6786009  52.3065637  35.0176223  31.4176009
  51.8735637  35.4476223  30.5026009  53.1775637  35.6146223  31.7256009
  52.6225637  33.9826223  31.2216009  47.5235637  33.8636223  32.6396009
  47.3805637  33.3146223  31.5466009  46.5045637  34.3016223  33.3936009
  46.7315637  34.7106223  34.2776009  45.0955637  34.1826223  33.0266009
  44.8945637  33.1716223  32.6426009  44.1915637  34.4316223  34.2576009
  44.3295637  35.5096223  34.4266009  43.1395637  34.2316223  34.0076009
  44.5705637  33.6596223  35.5376009  45.5315637  34.0416223  35.9126009
  43.4905637  33.8376223  36.6176009  42.5295637  33.4556223  36.2426009
  43.7795637  33.2806223  37.5206009  43.3885637  34.9046223  36.8626009
  44.8605637  32.1766223  35.2776009  45.6985637  32.0846223  34.5716009
  45.1235637  31.6816223  36.2246009  43.9675637  31.6976223  34.8506009
  44.7635637  35.1786223  31.9116009  44.8275637  36.3796223  32.1536009
  44.4245637  34.6586223  30.7246009  44.4905637  33.6646223  30.6426009
  44.0435637  35.4266223  29.5436009  44.2585637  36.4936223  29.6996009
  44.8485637  34.9336223  28.3166009  45.9155637  34.9806223  28.5796009
  44.5505637  33.8836223  28.1826009  44.6095637  35.7026223  27.0126009
  43.9545637  36.7676223  27.0426009  45.1255637  35.2166223  25.9816009
  42.5235637  35.2596223  29.4026009  42.0645637  34.3156223  28.7656009
  41.7805637  36.1496223  30.0726009  42.2595637  36.9316223  30.4716009
  40.3395637  36.0466223  30.2716009  39.9865637  35.0116223  30.1576009
  39.9345637  36.5816223  31.6786009  40.3545637  37.5936223  31.7786009
  38.4065637  36.6336223  31.9076009  37.9855637  35.6226223  31.8086009
  38.1995637  37.0196223  32.9166009  37.9455637  37.2966223  31.1606009
  40.5875637  35.7436223  32.8016009  39.9125637  34.9006223  33.0126009
  41.5405637  35.3596223  32.4076009  40.8465637  36.5256223  34.0926009
  39.8935637  36.9086223  34.4876009  41.3095637  35.8616223  34.8376009
  41.5215637  37.3686223  33.8826009  39.6015637  36.8526223  29.1946009
  39.6715637  38.0816223  29.2056009  38.8915637  36.1426223  28.3056009
  39.0005637  35.1486223  28.3106009  38.0205637  36.7376223  27.2986009
  38.4125637  37.7176223  26.9876009  37.9555637  35.8186223  26.0636009
  39.0115637  35.5766223  25.8716009  37.4035637  34.8956223  26.2926009
  37.3455637  36.4846223  24.8116009  36.3665637  36.9076223  25.0796009
  38.2605637  37.6066223  24.2766009  39.2405637  37.1846223  24.0086009
  37.8015637  38.0616223  23.3866009  38.3925637  38.3746223  25.0536009
  37.0445637  35.4266223  23.7366009  36.3305637  34.6906223  24.1356009
  36.6105637  35.9146223  22.8516009  37.9765637  34.9166223  23.4536009
  36.6265637  36.9806223  27.8936009  35.9795637  36.0416223  28.3526009
  36.1895637  38.2406223  27.8396009  36.8565637  38.9186223  27.5316009
  34.8665637  38.7026223  28.2266009  34.3565637  37.9446223  28.8396009
  35.0095637  39.9926223  29.0576009  35.6775637  39.7846223  29.9066009
  35.4985637  40.6986223  28.3706009  33.7095637  40.6016223  29.5716009
  32.6725637  39.8986223  29.6246009  33.8005637  41.7816223  29.9626009
  34.0765637  38.9116223  26.9246009  34.4925637  39.7006223  26.0766009
  32.9775637  38.1606223  26.7826009  32.6645637  37.6566223  27.5876009
  32.2235637  38.0156223  25.5366009  32.7055637  38.5016223  24.6756009
  32.0425637  36.5036223  25.2156009  31.5575637  36.4256223  24.2316009
  33.3725637  35.7316223  25.1926009  33.8585637  35.8086223  26.1766009
  33.1785637  34.6736223  24.9616009  34.0325637  36.1596223  24.4236009
  31.1595637  35.8516223  26.1076009  31.0825637  34.8876223  25.8546009
  30.8365637  38.6856223  25.6416009  30.4085637  39.0526223  26.7356009
  30.1675637  38.8426223  24.4866009  30.6315637  38.5576223  23.6476009
  28.8185637  39.3996223  24.3776009  28.7205637  40.2936223  25.0116009
  28.5695637  39.8046223  22.9156009  28.6545637  38.9186223  22.2696009
  27.5605637  40.2326223  22.8196009  29.3155637  40.5536223  22.6096009
  27.7385637  38.3926223  24.7956009  27.7785637  37.2486223  24.3476009
  26.7555637  38.8506223  25.5826009  26.8655637  39.7566223  25.9916009
  25.5345637  38.1006223  25.8756009  25.7425637  37.0236223  25.7876009
  25.2085637  38.3286223  26.9016009  24.4095637  38.4736223  24.8986009
  23.4365637  37.7276223  24.8086009  24.5285637  39.5876223  24.1526009
  25.2575637  40.2286223  24.3926009  23.6285637  39.9396223  23.0526009
  22.5825637  39.8666223  23.3836009  23.8995637  41.3866223  22.5896009
  24.9875637  41.4936223  22.4676009  23.4065637  41.5166223  21.6146009
  23.3835637  42.4596223  23.5746009  22.2915637  42.3536223  23.6506009
  23.8405637  42.2526223  24.5536009  23.7095637  43.9066223  23.1776009
  24.6315637  44.1186223  22.2356009  23.1325637  44.8406223  23.7286009
  23.3505637  45.7826223  23.4736009  22.4455637  44.6586223  24.4316009
  23.7895637  38.9606223  21.8776009  24.8985637  38.8256223  21.3576009
  22.6725637  38.3366223  21.4626009  21.8635637  38.4796223  22.0326009
  22.5715637  37.4026223  20.3296009  23.3035637  36.5886223  20.4376009
  21.1515637  36.7906223  20.2976009  20.4445637  37.6336223  20.2916009
  21.0685637  36.2366223  19.3506009  20.8185637  35.8476223  21.4776009
  20.9825637  36.4076223  22.4096009  19.7515637  35.5996223  21.3826009
  21.6425637  34.5566223  21.5056009  22.0215637  34.0706223  20.4166009
  21.9035637  34.0706223  22.6276009  22.9385637  38.0096223  18.9576009
  23.1845637  37.2566223  18.0156009  23.0285637  39.3496223  18.8956009
  22.6475637  39.8176223  19.6926009  23.5535637  40.1626223  17.7976009
  22.9455637  40.0546223  16.8876009  23.4915637  41.6396223  18.2626009
  22.4545637  41.8066223  18.5886009  24.1635637  41.7076223  19.1306009
  23.8835637  42.7126223  17.2236009  23.8125637  43.6846223  17.7346009
  24.9275637  42.5286223  16.9286009  22.9955637  42.7266223  15.9756009
  23.5205637  43.1436223  14.9196009  21.8115637  42.3396223  16.0886009
  24.9845637  39.7826223  17.3606009  25.3155637  39.9636223  16.1896009
  25.7885637  39.2636223  18.3036009  25.3885637  39.1696223  19.2156009
  27.1965637  38.9086223  18.1246009  27.5415637  39.1636223  17.1116009
  28.0275637  39.7146223  19.1476009  27.6935637  39.4346223  20.1576009
  29.0735637  39.4026223  19.0076009  27.9225637  41.2206223  18.9796009
  28.4045637  41.8276223  17.8006009  28.8885637  41.2126223  17.0276009
  28.2675637  43.2156223  17.6126009  28.6255637  43.6816223  16.6826009
  27.6635637  44.0056223  18.6086009  27.5385637  45.3526223  18.4286009
  27.9105637  45.6656223  17.5546009  27.1985637  43.4046223  19.7946009
  26.7365637  44.0236223  20.5776009  27.3235637  42.0146223  19.9796009
  26.9545637  41.5476223  20.9046009  27.4475637  37.3946223  18.2526009
  28.6055637  37.0006223  18.3896009  26.3875637  36.5656223  18.1926009
  25.4865637  36.9986223  18.1536009  26.4535637  35.1076223  18.3606009
  27.0345637  34.8596223  19.2616009  25.0325637  34.5256223  18.5136009
  25.1265637  33.4926223  18.8806009  24.4965637  35.1316223  19.2586009
  24.3115637  34.5296223  17.2956009  23.4015637  34.1446223  17.4456009
  27.2855637  34.3396223  17.3106009  27.6615637  33.2036223  17.5926009
  27.5895637  34.9576223  16.1536009  27.1275637  35.8236223  15.9656009
  28.4755637  34.4046223  15.1236009  28.1555637  33.3656223  14.9586009
  28.2895637  35.1886223  13.8176009  28.6145637  36.2296223  13.9646009
  28.8925637  34.7266223  13.0226009  27.2285637  35.1736223  13.5276009
  29.9645637  34.3706223  15.5246009  30.7125637  33.5906223  14.9366009
  30.3675637  35.1786223  16.5226009  29.6975637  35.8366223  16.8656009
  31.7215637  35.2016223  17.0926009  32.4715637  35.1716223  16.2886009
  31.9255637  36.4976223  17.9086009  31.2105637  36.4626223  18.7446009
  32.9515637  36.4656223  18.3036009  31.7225637  37.8006223  17.1156009
  32.5045637  37.8336223  16.3426009  30.7355637  37.7356223  16.6346009
  31.8035637  39.3176223  18.1126009  33.5635637  39.3566223  18.5386009
  34.1625637  39.4036223  17.6176009  33.7725637  40.2416223  19.1576009
  33.8255637  38.4476223  19.0996009  32.0365637  33.9786223  17.9806009
  33.2105637  33.7516223  18.2736009  30.9985637  33.2366223  18.4086009
  30.0905637  33.5436223  18.1246009  31.0905637  32.1336223  19.3656009
  31.6235637  32.4676223  20.2676009  29.6895637  31.6546223  19.7726009
  29.1425637  31.4016223  18.8526009  29.8105637  30.7506223  20.3876009
  28.9005637  32.7076223  20.5626009  29.5105637  33.0116223  21.4266009
  28.7395637  33.5746223  19.9056009  27.5475637  32.1806223  21.0526009
  27.0225637  31.6906223  20.2196009  27.7105637  31.4526223  21.8616009
  26.7075637  33.2686223  21.5616009  27.1665637  34.1496223  21.6756009
  25.4085637  33.1756223  21.8846009  24.7435637  32.0156223  21.8036009
  25.2175637  31.1906223  21.4956009  23.7755637  31.9786223  22.0516009
  24.7645637  34.2726223  22.2896009  25.2535637  35.1426223  22.3466009
  23.7965637  34.2196223  22.5346009  31.9815637  30.9686223  18.9286009
  32.7815637  30.5356223  19.7536009  31.8675637  30.4986223  17.6726009
  31.1145637  30.8396223  17.1106009  32.6595637  29.3686223  17.1656009
  32.5185637  28.5286223  17.8616009  32.2925637  28.8956223  15.7386009
  32.4775637  29.7846223  15.1176009  32.9765637  28.0886223  15.4366009
  30.8425637  28.4326223  15.5486009  30.1695637  28.1196223  16.5556009
  30.4495637  28.3306223  14.3656009  34.1805637  29.5466223  17.3016009
  34.8125637  28.6836223  17.9036009  34.7475637  30.6546223  16.7946009
  34.1855637  31.2926223  16.2686009  36.1995637  30.8636223  16.8186009
  36.7155637  29.9266223  16.5636009  36.6065637  31.9456223  15.7936009
  36.1405637  31.6506223  14.8416009  36.1535637  32.8836223  16.1476009
  38.1255637  32.1546223  15.5806009  38.2595637  32.8696223  14.7546009
  38.5345637  32.5836223  16.5076009  38.9005637  30.8746223  15.2506009
  39.7995637  30.4826223  15.9906009  38.5535637  30.2136223  14.1446009
  39.0355637  29.3736223  13.8946009  37.8125637  30.5606223  13.5696009
  36.7725637  31.1096223  18.2296009  37.8705637  30.6176223  18.4946009
  36.0255637  31.7836223  19.1316009  35.2645637  32.3466223  18.8076009
  36.4465637  31.9216223  20.5336009  37.5395637  32.0426223  20.5606009
  35.7935637  33.1406223  21.2446009  36.5305637  33.5066223  21.9746009
  35.7595637  33.8246223  20.3836009  34.4125637  33.0786223  21.9016009
  34.1085637  32.1396223  22.9126009  34.8765637  31.4146223  23.2206009
  32.8425637  32.1246223  23.5236009  32.5955637  31.3366223  24.2506009
  31.8865637  33.0936223  23.1886009  30.6795637  33.0766223  23.8216009
  30.5995637  32.3386223  24.4916009  32.1975637  34.0796223  22.2306009
  31.4645637  34.8636223  21.9906009  33.4485637  34.0606223  21.5806009
  33.6815637  34.8156223  20.8146009  36.3525637  30.6006223  21.3156009
  37.1595637  30.4026223  22.2206009  35.3875637  29.7296223  20.9696009
  34.6985637  30.0396223  20.3146009  35.1985637  28.4276223  21.6116009
  35.3745637  28.5216223  22.6936009  33.7665637  27.9046223  21.3896009
  33.5215637  28.0246223  20.3236009  33.7495637  26.8366223  21.6506009
  32.7305637  28.6566223  22.2406009  32.9365637  28.4116223  23.2926009
  32.8955637  29.7316223  22.0756009  31.0075637  28.2546223  21.8626009
  30.1615637  29.4406223  22.9426009  30.4535637  30.4636223  22.6626009
  29.0735637  29.3266223  22.8316009  30.4455637  29.2516223  23.9886009
  36.2765637  27.4076223  21.2106009  36.7275637  26.6676223  22.0806009
  36.7315637  27.4266223  19.9426009  36.2235637  27.9656223  19.2706009
  37.8905637  26.6506223  19.4806009  37.7465637  25.5876223  19.7256009
  38.0655637  26.7856223  17.9516009  38.1775637  27.8576223  17.7326009
  38.9935637  26.2586223  17.6846009  36.8995637  26.2156223  17.1316009
  36.8215637  25.1436223  17.3646009  35.9825637  26.7286223  17.4566009
  37.0795637  26.3986223  15.6166009  37.4675637  27.4086223  15.4186009
  37.7975637  25.6516223  15.2466009  35.8085637  26.2316223  14.8926009
  35.4405637  27.0796223  14.5106009  35.1225637  25.0906223  14.7016009
  33.9385637  25.1396223  14.0786009  33.5785637  26.0176223  13.7636009
  33.4195637  24.2976223  13.9306009  35.5935637  23.9066223  15.1166009
  36.4775637  23.8586223  15.5816009  35.0595637  23.0766223  14.9596009
  39.1915637  27.0676223  20.1936009  39.9555637  26.1946223  20.6036009
  39.4685637  28.3756223  20.3326009  38.9265637  29.0426223  19.8216009
  40.7275637  28.8266223  20.9526009  41.4425637  27.9916223  20.9736009
  41.3585637  29.9976223  20.1626009  42.2975637  30.2826223  20.6586009
  41.5745637  29.6496223  19.1416009  40.4045637  31.5226223  19.9806009
  40.6755637  28.9996223  22.4896009  41.7435637  29.1096223  23.0916009
  39.4895637  28.9756223  23.1246009  38.6515637  28.9326223  22.5796009
  39.3685637  29.0096223  24.5816009  40.1435637  29.6696223  24.9976009
  38.3745637  29.3926223  24.8566009  39.5415637  27.6076223  25.1686009
  38.9945637  26.6406223  24.6406009  40.2855637  27.5226223  26.2796009
  40.6985637  28.3736223  26.6046009  40.5805637  26.2876223  27.0066009
  40.5215637  25.4216223  26.3306009  42.0095637  26.3656223  27.5866009
  42.0535637  27.2496223  28.2396009  42.1725637  25.4586223  28.1866009
  43.1025637  26.4696223  26.5056009  43.0895637  25.5626223  25.8836009
  42.8545637  27.3426223  25.8846009  44.4925637  26.6526223  27.1076009
  45.3105637  25.7186223  26.9686009  44.7355637  27.7396223  27.6756009
  39.5535637  26.0296223  28.1206009  39.1385637  24.8826223  28.2806009
  39.1695637  27.0906223  28.8536009  39.5685637  27.9756223  28.6146009
  38.2195637  27.0356223  29.9626009  37.8575637  26.0046223  30.0866009
  38.7135637  27.3646223  30.8886009  37.0265637  27.9526223  29.6826009
  37.1595637  28.9526223  28.9776009  35.8625637  27.5996223  30.2566009
  35.8795637  26.7716223  30.8176009  34.5815637  28.2786223  30.0606009
  34.7505637  29.2846223  29.6486009  33.7015637  27.4836223  29.0756009
  33.8055637  26.4676223  29.4846009  32.6345637  27.7286223  28.9696009
  34.2795637  27.4486223  27.6746009  35.2435637  26.4736223  27.3466009
  35.4305637  25.6366223  28.0356009  35.9535637  26.5656223  26.1626009
  36.7025637  25.8006223  25.9096009  35.7215637  27.6226223  25.2956009
  36.2995637  27.6906223  24.3626009  34.7705637  28.5896223  25.5956009
  34.5815637  29.4106223  24.8886009  34.0585637  28.5206223  26.7856009
  33.3235637  29.3006223  27.0326009  33.8725637  28.4926223  31.4026009
  33.3855637  27.5406223  32.0066009  33.8145637  29.7576223  31.8346009
  34.3475637  30.4296223  31.3206009  33.1015637  30.2046223  33.0216009
  33.0685637  29.4096223  33.7806009  33.8545637  31.4256223  33.6156009
  34.8935637  31.2546223  33.2966009  33.4885637  32.3686223  33.1826009
  33.7975637  31.5106223  35.1526009  32.7485637  31.4066223  35.4676009
  34.6455637  30.4036223  35.8166009  35.6945637  30.5066223  35.5026009
  34.5795637  30.4976223  36.9106009  34.2665637  29.4176223  35.5096009
  34.2055637  32.9066223  35.6606009  33.5225637  33.6626223  35.2466009
  34.1525637  32.9276223  36.7586009  35.2345637  33.1276223  35.3396009
  31.6555637  30.5046223  32.5916009  31.3905637  31.5696223  32.0346009
  30.7685637  29.5176223  32.7856009  31.1135637  28.6806223  33.2096009
  29.3715637  29.5516223  32.3566009  29.2805637  30.1756223  31.4556009
  28.8535637  28.1376223  32.0306009  29.1375637  27.3956223  32.7916009
  27.7645637  28.1096223  31.8796009  29.5935637  27.5686223  30.4736009
  29.0025637  26.4106223  30.4566009  28.5335637  30.2306223  33.4466009
  28.1415637  29.5796223  34.4146009  28.3195637  31.5436223  33.2746009
  28.6235637  31.9456223  32.4106009  27.6815637  32.4136223  34.2546009
  27.7785637  32.0186223  35.2766009  28.2775637  33.8526223  34.2186009
  28.0615637  34.2786223  33.2276009  27.6985637  34.7746223  35.3116009
  27.9145637  34.3496223  36.3026009  28.1575637  35.7706223  35.2326009
  26.6095637  34.8616223  35.1796009  29.8115637  33.8526223  34.3406009
  30.2465637  33.2836223  33.5056009  30.1815637  34.8876223  34.3106009
  30.1045637  33.3866223  35.2926009  26.1695637  32.5216223  33.9806009
  25.7705637  32.8176223  32.8566009  25.3715637  32.3376223  35.0386009
  25.7715637  31.8486223  35.8136009  23.9675637  32.7396223  35.1216009
  23.6855637  33.3156223  34.2276009  23.0645637  31.4816223  35.2066009
  22.0185637  31.6926223  34.9386009  23.5055637  30.8096223  34.4556009
  23.0315637  30.7086223  36.5166009  24.0305637  29.7596223  36.8066009
  24.8025637  29.5266223  36.0586009  24.0415637  29.1176223  38.0386009
  24.8055637  28.3546223  38.2486009  23.0945637  29.4346223  39.0026009
  23.1185637  28.9256223  39.9776009  22.1205637  30.3876223  38.7406009
  21.3765637  30.6356223  39.5126009  22.0825637  31.0256223  37.5106009
  21.3105637  31.7826223  37.3066009  23.8295637  33.6556223  36.3486009
  24.6635637  33.5986223  37.2506009  22.7625637  34.4686223  36.3766009
  22.2105637  34.5626223  35.5476009  22.3905637  35.2566223  37.5506009
  23.2475637  35.3906223  38.2276009  21.8965637  36.6366223  37.1076009
  21.0325637  36.5196223  36.4366009  21.5965637  37.2196223  37.9906009
  22.7045637  37.1626223  36.5776009  21.3085637  34.5086223  38.3366009
  20.3365637  34.0526223  37.7366009  21.4905637  34.4026223  39.6636009
  22.3265637  34.8066223  40.0346009  20.6025637  33.6746223  40.5806009
  20.3085637  32.6736223  40.2306009  21.2125637  33.5666223  42.0046009
  20.4405637  33.1756223  42.6836009  22.4365637  32.6366223  42.0296009
  23.2085637  33.0286223  41.3516009  22.8395637  32.5866223  43.0516009
  22.1385637  31.6296223  41.7036009  21.5195637  34.9376223  42.6616009
  22.6125637  35.0276223  42.7436009  21.1385637  35.7196223  41.9886009
  20.8895637  35.1046223  44.0456009  21.2705637  34.3236223  44.7196009
  21.1475637  36.0946223  44.4496009  19.7965637  35.0156223  43.9646009
  19.1675637  34.2366223  40.7226009  18.3115637  33.5356223  41.2556009
  18.9245637  35.4586223  40.2256009  19.7285637  35.9986223  39.9766009
  17.6075637  36.0996223  40.1576009  16.8795637  35.5386223  40.7626009
  17.7035637  37.5436223  40.7116009  16.6655637  37.8986223  40.7926009
  18.1515637  37.4926223  41.7146009  18.5015637  38.5466223  39.8686009
  19.5155637  38.2096223  39.2596009  18.0545637  39.8026223  39.8596009
  18.5365637  40.4976223  39.3266009  17.2395637  40.0436223  40.3856009
  16.9785637  36.0326223  38.7456009  15.9375637  36.6556223  38.5356009
  17.5955637  35.2806223  37.8176009  18.4505637  34.8436223  38.0956009
  17.1565637  35.1256223  36.4326009  16.1155637  35.4626223  36.3156009
  18.0635637  35.9916223  35.5226009  18.0895637  36.9996223  35.9616009
  19.0745637  35.5576223  35.5416009  17.6055637  36.1046223  34.0616009
  16.6355637  35.4796223  33.6406009  18.3155637  36.9026223  33.2666009
  18.0555637  37.0076223  32.3066009  19.1065637  37.3936223  33.6326009
  17.1785637  33.6286223  36.0716009  18.2465637  33.0656223  35.8316009
  15.9805637  33.0226223  36.0176009  15.1855637  33.5666223  36.2846009
  15.7715637  31.6196223  35.6526009  16.4975637  30.9736223  36.1676009
  14.3385637  31.1466223  36.0206009  13.6465637  31.8136223  35.4856009
  14.0075637  29.6806223  35.6766009  14.6985637  29.0126223  36.2126009
  12.9745637  29.4566223  35.9796009  14.1135637  29.5256223  34.5926009
  14.1445637  31.3176223  37.4116009  13.2235637  31.0156223  37.6596009
  16.0135637  31.3366223  34.1556009  16.4835637  30.2456223  33.8376009
  15.7495637  32.3186223  33.2726009  15.2395637  33.1136223  33.6006009
  16.0305637  32.2156223  31.8376009  15.6305637  31.2676223  31.4476009
  15.3715637  33.3836223  31.0686009  14.2935637  33.3186223  31.2786009
  15.7765637  34.3066223  31.5096009  15.5975637  33.4016223  29.5396009
  15.0315637  34.2556223  29.1386009  16.6725637  33.5646223  29.3726009
  15.1565637  32.1106223  28.8216009  15.8595637  31.3176223  29.1186009
  14.1495637  31.8636223  29.1886009  15.1295637  32.2226223  27.2886009
  14.8215637  31.2486223  26.8816009  14.3855637  32.9856223  27.0166009
  16.4405637  32.5956223  26.7316009  16.6605637  33.5346223  26.9966009
  17.1415637  31.9766223  27.0856009  16.4095637  32.5296223  25.7346009
  17.5325637  32.0746223  31.5446009  17.8885637  31.2166223  30.7436009
  18.3865637  32.8506223  32.2396009  18.0085637  33.6176223  32.7576009
  19.8455637  32.7316223  32.1396009  20.1465637  32.7096223  31.0816009
  20.5305637  33.9306223  32.8216009  21.5565637  33.9846223  32.4276009
  19.9765637  34.8326223  32.5236009  20.5715637  33.8476223  34.2326009
  21.0285637  34.6566223  34.6016009  20.3945637  31.3766223  32.6256009
  21.3785637  30.9006223  32.0646009  19.7315637  30.7656223  33.6216009
  19.0475637  31.3096223  34.1076009  20.0475637  29.4316223  34.1336009
  21.1335637  29.3096223  34.2616009  19.3665637  29.2626223  35.5066009
  19.7995637  30.0276223  36.1676009  18.2815637  29.4226223  35.4226009
  19.5555637  27.9296223  36.2036009  20.8335637  27.5576223  36.6646009
  21.6905637  28.2306223  36.5136009  21.0115637  26.3446223  37.3086009
  22.0055637  26.0696223  37.6906009  19.9395637  25.4766223  37.4726009
  20.0915637  24.5166223  37.9886009  18.6805637  25.8136223  36.9906009
  17.8415637  25.1136223  37.1176009  18.4785637  27.0296223  36.3496009
  17.4825637  27.2866223  35.9596009  19.7255637  28.3016223  33.1336009
  20.4505637  27.3086223  33.0986009  18.6875637  28.5076223  32.3046009
  18.1125637  29.2996223  32.5126009  18.2965637  27.6386223  31.1926009
  18.3975637  26.5796223  31.4726009  16.8195637  27.9186223  30.8446009
  16.7175637  28.9986223  30.6596009  16.5825637  27.3656223  29.9236009
  15.8455637  27.4946223  31.9646009  15.8545637  26.3966223  32.0256009
  16.2585637  27.9166223  32.8926009  14.4065637  27.9836223  31.7776009
  13.5565637  27.5206223  32.5696009  14.1655637  28.8236223  30.8816009
  19.2035637  27.8066223  29.9566009  19.4225637  26.8256223  29.2476009
  19.7355637  29.0246223  29.7346009  19.3765637  29.7666223  30.3006009
  20.6735637  29.3646223  28.6526009  20.3055637  28.9146223  27.7186009
  20.8315637  30.8916223  28.4376009  21.2685637  31.2426223  29.3836009
  21.5365637  31.0846223  27.6156009  19.5215637  31.6386223  28.1716009
  18.6115637  31.0296223  27.5666009  19.4645637  32.8406223  28.5056009
  22.0595637  28.7076223  28.7806009  22.7565637  28.6186223  27.7696009
  22.4225637  28.2296223  29.9866009  21.8125637  28.4336223  30.7526009
  23.6585637  27.4846223  30.2596009  24.5715637  28.0056223  29.9346009
  23.7885637  27.0976223  31.7656009  22.8445637  26.6066223  32.0456009
  24.9745637  26.1656223  32.1076009  25.9185637  26.6556223  31.8296009
  24.9765637  25.9546223  33.1876009  24.8725637  25.2226223  31.5506009
  23.8025637  28.3316223  32.6936009  22.9115637  28.9256223  32.4426009
  23.7125637  27.9536223  33.7226009  25.0535637  29.2146223  32.5806009
  25.1435637  29.5936223  31.5516009  24.9685637  30.0616223  33.2766009
  25.9455637  28.6226223  32.8316009  23.7825637  26.1986223  29.4206009
  24.8865637  25.8976223  28.9706009  22.6525637  25.5016223  29.1986009
  21.8375637  25.7776223  29.7266009  22.5495637  24.3336223  28.3246009
  23.2345637  23.5526223  28.6556009  21.1115637  23.7796223  28.3706009
  20.8535637  23.4656223  29.3816009  20.4255637  24.5626223  28.0476009
  20.8645637  22.5916223  27.4736009  21.4035637  21.3286223  27.7406009
  20.9935637  20.5666223  26.7346009  21.3185637  19.5266223  26.7616009
  20.2415637  21.2256223  25.8526009  19.8145637  20.8676223  25.0106009
  20.1405637  22.5306223  26.3006009  19.5645637  23.2596223  25.7306009
  22.9835637  24.6436223  26.8836009  23.8255637  23.9316223  26.3496009
  22.4225637  25.7146223  26.3006009  21.7075637  26.1966223  26.8266009
  22.6755637  26.1396223  24.9226009  22.6115637  25.2876223  24.2456009
  21.6195637  27.1776223  24.5076009  21.6685637  28.0896223  25.1026009
  21.7765637  27.4216223  23.4566009  20.2065637  26.6616223  24.6246009
  19.4405637  26.8066223  25.7886009  18.3015637  26.1796223  25.5236009
  17.5645637  26.1736223  26.3266009  18.2635637  25.6596223  24.2976009
  17.5095637  25.1456223  23.8636009  19.4745637  25.9516223  23.6956009
  19.6705637  25.6186223  22.6766009  24.1115637  26.6346223  24.6766009
  24.6475637  26.3686223  23.5996009  24.7245637  27.2806223  25.6846009
  24.1535637  27.6256223  26.4296009  26.1515637  27.6086223  25.6946009
  26.4365637  28.0566223  24.7306009  26.4725637  28.6156223  26.8206009
  25.7835637  28.4276223  27.6576009  27.5045637  28.4176223  27.1456009
  26.3495637  30.0616223  26.3796009  27.3565637  30.6216223  25.5666009
  28.2255637  30.0126223  25.2766009  27.2535637  31.9536223  25.1266009
  28.0355637  32.3866223  24.4856009  26.1385637  32.7286223  25.4966009
  26.0475637  34.0196223  25.0756009  26.8255637  34.3026223  24.5146009
  25.1305637  32.1736223  26.3096009  24.2575637  32.7796223  26.5936009
  25.2395637  30.8436223  26.7576009  24.4585637  30.4146223  27.4026009
  27.0375637  26.3586223  25.7816009  27.9435637  26.2286223  24.9606009
  26.7465637  25.4556223  26.7366009  26.0495637  25.7186223  27.4036009
  27.4765637  24.2036223  26.9526009  28.5535637  24.4056223  27.0476009
  26.9845637  23.5266223  28.2526009  27.1945637  24.2276223  29.0746009
  25.8965637  23.3976223  28.1506009  27.6365637  22.1636223  28.5606009
  27.3065637  21.4526223  27.7886009  28.7275637  22.2926223  28.4976009
  27.2655637  21.6216223  29.9456009  27.7275637  22.2566223  30.7156009
  26.1715637  21.6446223  30.0596009  27.7295637  20.2376223  30.1346009
  27.0075637  19.5466223  30.1046009  28.9965637  19.8326223  30.3316009
  30.0075637  20.7046223  30.4306009  29.8265637  21.6856223  30.3576009
  30.9385637  20.3706223  30.5766009  29.2665637  18.5256223  30.4386009
  28.5245637  17.8586223  30.3716009  30.2085637  18.2226223  30.5856009
  27.4465637  23.2626223  25.7356009  28.4965637  22.7416223  25.3726009
  26.2715637  23.0946223  25.1056009  25.4605637  23.4866223  25.5406009
  26.0885637  22.2806223  23.9026009  26.5505637  21.2926223  24.0456009
  24.5835637  22.0836223  23.6096009  24.1275637  23.0846223  23.6236009
  24.5135637  21.6636223  22.5956009  23.8345637  21.1626223  24.6016009
  23.9425637  21.6286223  25.5916009  22.7725637  21.1566223  24.3136009
  24.3565637  19.7246223  24.6556009  24.3805637  19.1716223  25.7766009
  24.7415637  19.2006223  23.5886009  26.8275637  22.8186223  22.6656009
  27.2965637  22.0016223  21.8736009  26.9655637  24.1526223  22.5336009
  26.4225637  24.7526223  23.1206009  27.7795637  24.7626223  21.4796009
  27.6225637  24.2176223  20.5376009  27.4025637  26.2436223  21.2626009
  26.3125637  26.2966223  21.1226009  27.6815637  26.7996223  22.1696009
  28.1115637  26.8676223  20.0366009  29.1945637  26.8536223  20.2316009
  27.8895637  26.2406223  19.1606009  27.6895637  28.3046223  19.7286009
  26.9155637  28.9196223  20.4606009  28.2035637  28.8496223  18.6256009
  27.9615637  29.7876223  18.3756009  28.8285637  28.3176223  18.0536009
  29.2825637  24.5826223  21.7526009  29.9985637  24.2006223  20.8316009
  29.7205637  24.8186223  23.0036009  29.0535637  25.1936223  23.6476009
  31.1055637  24.6436223  23.4586009  31.8185637  25.2046223  22.8366009
  31.2825637  25.0566223  24.9546009  30.4395637  24.6116223  25.5036009
  32.6115637  24.6176223  25.6076009  33.4555637  25.0626223  25.0596009
  32.6355637  24.9556223  26.6536009  32.6925637  23.5206223  25.5756009
  31.1105637  26.5796223  25.1316009  32.0755637  27.0436223  24.8796009
  30.3475637  26.9036223  24.4086009  30.6905637  27.0086223  26.5436009
  31.4525637  26.6856223  27.2676009  30.5915637  28.1036223  26.5806009
  29.7255637  26.5456223  26.7966009  31.6195637  23.2046223  23.2556009
  32.7255637  23.0346223  22.7446009  30.7935637  22.2066223  23.6146009
  29.9465637  22.4536223  24.0856009  31.1015637  20.7886223  23.4386009
  32.1015637  20.5736223  23.8436009  30.0705637  19.9106223  24.1786009
  29.0765637  20.2716223  23.8766009  30.2135637  18.8836223  23.8126009
  30.1775637  19.9276223  25.7166009  31.2155637  19.6696223  25.9746009
  29.9625637  20.9546223  26.0476009  29.2135637  18.9486223  26.4196009
  29.6045637  17.9366223  26.2396009  29.2615637  19.1736223  27.4956009
  27.7535637  19.0266223  25.9446009  27.4095637  20.0656223  26.0496009
  27.7175637  18.7336223  24.8846009  26.8795637  18.1396223  26.7276009
  27.0645637  17.1876223  26.4826009  27.0565637  18.2736223  27.7026009
  25.9235637  18.3546223  26.5296009  31.1975637  20.3646223  21.9626009
  32.1195637  19.6306223  21.6126009  30.2465637  20.8316223  21.1346009
  29.5085637  21.3596223  21.5556009  30.1565637  20.5306223  19.7036009
  30.2515637  19.4486223  19.5266009  28.7775637  20.9956223  19.1856009
  28.0275637  20.3736223  19.6956009  28.6625637  22.0416223  19.5046009
  28.5735637  20.8986223  17.6606009  29.1695637  21.6996223  17.1986009
  28.9625637  19.9216223  17.3396009  27.1065637  21.0346223  17.2226009
  27.0745637  21.0666223  16.1236009  26.5545637  20.1526223  17.5796009
  26.4535637  22.2446223  17.7496009  25.7165637  22.0626223  18.3996009
  26.7505637  23.5236223  17.4576009  27.7205637  23.8446223  16.5896009
  28.2445637  23.1216223  16.1406009  27.9155637  24.8056223  16.3956009
  26.0485637  24.5026223  18.0436009  25.3175637  24.2736223  18.6866009
  26.2585637  25.4576223  17.8356009  31.3185637  21.1236223  18.8916009
  31.9325637  20.4036223  18.1046009  31.5855637  22.4226223  19.1036009
  30.9915637  22.8966223  19.7536009  32.6055637  23.2006223  18.4016009
  32.5725637  23.0766223  17.3096009  32.4555637  24.7136223  18.7356009
  32.2775637  24.7756223  19.8196009  33.6545637  25.5976223  18.3626009
  33.8325637  25.5366223  17.2786009  33.4425637  26.6406223  18.6416009
  34.5485637  25.2496223  18.9006009  31.1905637  25.2986223  18.0816009
  30.3035637  24.7646223  18.4546009  31.1075637  26.3666223  18.3316009
  31.2555637  25.1826223  16.9896009  34.0435637  22.7246223  18.6966009
  34.8605637  22.7026223  17.7766009  34.3165637  22.3266223  19.9496009
  33.6135637  22.4556223  20.6486009  35.6165637  21.7936223  20.3626009
  36.4245637  22.2716223  19.7906009  35.8355637  22.0816223  21.8586009
  34.9995637  21.6336223  22.4156009  36.7775637  21.6006223  22.1616009
  35.9075637  23.5866223  22.1666009  36.6195637  24.0346223  21.4586009
  34.9055637  24.0066223  21.9926009  36.3515637  23.8976223  23.6046009
  36.1555637  24.9666223  23.7776009  35.7185637  23.2956223  24.2736009
  37.8315637  23.5956223  23.8916009  38.0495637  23.8966223  24.9266009
  37.9885637  22.5126223  23.7836009  38.7295637  24.3156223  22.9726009
  38.1975637  24.9616223  22.4256009  39.4175637  24.8136223  23.5006009
  39.1825637  23.6606223  22.3676009  35.7895637  20.2926223  20.0726009
  36.9265637  19.8216223  20.0906009  34.6755637  19.5756223  19.8356009
  33.8275637  20.0996223  19.9116009  34.5825637  18.1216223  19.6536009
  33.5215637  17.8316223  19.6486009  35.2325637  17.6476223  18.3256009
  35.0035637  18.3496223  17.5096009  36.3095637  17.6846223  18.5486009
  34.8475637  16.2256223  17.8996009  33.7335637  15.7826223  18.2596009
  35.6385637  15.6316223  17.1366009  35.1095637  17.3876223  20.9096009
  36.0535637  16.5986223  20.8406009  34.5155637  17.7466223  22.0536009
  33.7335637  18.3646223  21.9706009  34.9385637  17.3436223  23.3866009
  35.2665637  16.2936223  23.3876009  36.1275637  18.2346223  23.8246009
  36.9785637  18.0056223  23.1666009  35.8285637  19.2836223  23.6846009
  36.5055637  18.0276223  25.1736009  37.2735637  18.6266223  25.3996009
  33.7295637  17.4896223  24.3116009  33.1675637  18.5776223  24.3866009
  33.3655637  16.4146223  25.0226009  33.7515637  15.5266223  24.7736009
  32.3405637  16.4576223  26.0706009  31.6855637  17.3296223  25.9276009
  31.4825637  15.1806223  26.0036009  32.1595637  14.3146223  26.0486009
  30.8185637  15.1726223  26.8806009  30.6355637  15.1036223  24.7166009
  30.0185637  16.0146223  24.6946009  31.3125637  15.0986223  23.8496009
  29.7295637  13.8726223  24.6616009  29.6615637  13.2656223  23.5706009
  29.0985637  13.5696223  25.6986009  32.9385637  16.6856223  27.4736009
  32.1745637  16.8306223  28.4276009  34.2785637  16.7236223  27.5666009
  34.7715637  16.6416223  26.7006009  35.0565637  16.7966223  28.8026009
  34.4045637  16.6686223  29.6796009  36.1115637  15.6576223  28.7976009
  35.6605637  14.7756223  28.3206009  36.9215637  16.0436223  28.1616009
  36.6805637  15.2626223  30.1666009  36.0425637  15.5796223  31.1936009
  37.7385637  14.5956223  30.1526009  35.7135637  18.1876223  28.9786009
  36.5995637  18.3206223  29.8216009  35.2815637  19.2006223  28.1996009
  34.5245637  18.9866223  27.5826009  35.8155637  20.5706223  28.1986009
  36.8565637  20.6116223  27.8466009  34.9485637  21.5076223  27.3016009
  33.9065637  21.4156223  27.6426009  35.3775637  22.9896223  27.3546009
  36.4195637  23.0826223  27.0136009  34.7235637  23.5846223  26.7006009
  35.2955637  23.3586223  28.3876009  34.9475637  21.0506223  25.8376009
  34.5375637  20.0316223  25.7706009  34.3265637  21.7346223  25.2406009
  35.9765637  21.0566223  25.4496009  35.8205637  21.1906223  29.6226009
  34.7605637  21.1916223  30.2506009  36.9865637  21.6986223  30.0966009
  38.2855637  21.6036223  29.4316009  38.2675637  22.2476223  28.5396009
  38.4435637  20.5586223  29.1256009  39.2985637  22.0646223  30.4626009
  40.1575637  22.5486223  29.9746009  39.6505637  21.2166223  31.0676009
  38.5205637  23.0456223  31.3096009  38.5085637  24.0456223  30.8506009
  38.9255637  23.1166223  32.3296009  37.0995637  22.4736223  31.3496009
  36.9885637  21.7666223  32.1846009  36.0525637  23.5876223  31.4806009
  36.0015637  24.4856223  30.6396009  35.1925637  23.4576223  32.4946009
  35.3205637  22.7016223  33.1366009  34.0215637  24.3056223  32.6526009
  34.2415637  25.3346223  32.3326009  32.8805637  23.7466223  31.7706009
  33.3215637  23.5436223  30.7836009  32.5655637  22.7996223  32.2326009
  31.6615637  24.6666223  31.6076009  31.2495637  24.8436223  32.6126009
  32.0235637  25.6166223  31.1876009  30.3575637  24.0006223  30.5376009
  31.2015637  24.0526223  28.9316009  32.1065637  23.4286223  28.9716009
  30.5275637  23.6716223  28.1506009  31.4825637  25.0906223  28.6976009
  33.6585637  24.4026223  34.1336009  33.8355637  23.4356223  34.8696009
  33.1555637  25.5756223  34.5366009  33.1215637  26.3166223  33.8656009
  32.6635637  25.8396223  35.8826009  32.4475637  24.9176223  36.4416009
  33.6675637  26.7006223  36.7096009  33.9685637  27.5396223  36.0646009
  33.1145637  27.2486223  38.0436009  32.8135637  26.4096223  38.6886009
  33.8935637  27.8386223  38.5486009  32.2415637  27.8886223  37.8446009
  34.9675637  25.9296223  36.9926009  35.4455637  25.6546223  36.0406009
  35.6505637  26.5646223  37.5756009  34.7375637  25.0186223  37.5636009
  31.3355637  26.5896223  35.7376009  31.2935637  27.6296223  35.0756009
  30.2835637  26.0546223  36.3766009  30.3755637  25.1226223  36.7276009
  28.9995637  26.7286223  36.5326009  28.7125637  27.2256223  35.5936009
  27.9105637  25.6896223  36.8956009  27.9835637  24.9596223  36.0766009
  28.1365637  25.1926223  37.8506009  26.4795637  26.2686223  36.9426009
  26.4635637  27.0866223  37.6776009  26.0285637  26.8016223  35.5726009
  26.0435637  25.9836223  34.8366009  25.0075637  27.2036223  35.6526009
  26.7115637  27.6006223  35.2466009  25.4765637  25.2466223  37.4976009
  25.7705637  24.9616223  38.5186009  24.4705637  25.6916223  37.5166009
  25.4695637  24.3536223  36.8556009  29.1365637  27.8216223  37.6046009
  29.6565637  27.5446223  38.6856009  28.6755637  29.0376223  37.2836009
  28.2975637  29.1736223  36.3676009  28.7545637  30.1876223  38.1756009
  29.0385637  29.9046223  39.2006009  29.7655637  31.2506223  37.6556009
  29.5715637  31.3746223  36.5796009  29.6755637  32.6206223  38.3546009
  29.8695637  32.4976223  39.4306009  30.4235637  33.3026223  37.9236009
  28.6695637  33.0416223  38.2096009  31.2055637  30.7196223  37.7616009
  31.3055637  29.8056223  37.1576009  31.9065637  31.4816223  37.3896009
  31.4355637  30.4906223  38.8126009  27.3625637  30.8056223  38.3476009
  26.7495637  31.2066223  37.3606009  26.9125637  30.8886223  39.6076009
  27.4615637  30.4636223  40.3276009  25.6755637  31.5586223  39.9876009
  25.0155637  31.7096223  39.1206009  25.1355637  30.9996223  40.7656009
  26.0815637  32.9156223  40.5446009  26.4125637  33.0146223  41.7216009
  26.0475637  33.9536223  39.6976009  25.8425637  33.7546223  38.7396009
  26.3765637  35.3276223  40.0646009  27.1685637  35.3396223  40.8286009
  26.8825637  36.0896223  38.8156009  27.5065637  35.3946223  38.2346009
  26.0095637  36.3866223  38.2156009  27.7105637  37.3446223  39.1326009
  28.4455637  37.3936223  40.1176009  27.5855637  38.3736223  38.2986009
  28.1045637  39.2126223  38.4626009  26.9735637  38.3036223  37.5106009
  25.1855637  36.0426223  40.7246009  24.0495637  35.5786223  40.6386009
  25.4925637  37.1876223  41.3526009  26.4745637  37.3356223  41.4676009
  24.5715637  38.1126223  42.0106009  25.1395637  38.9806223  42.3766009
  23.4585637  38.6166223  41.0546009  22.7265637  37.7986223  40.9786009
  22.9935637  39.4796223  41.5536009  23.9175637  39.0276223  39.6416009
  24.9175637  39.4776223  39.7236009  23.9735637  38.1216223  39.0206009
  22.9555637  40.0326223  38.9926009  21.9505637  39.5856223  39.0046009
  22.9585637  40.9426223  39.6106009  23.3375637  40.3926223  37.5526009
  24.3655637  40.7836223  37.5476009  23.2885637  39.4836223  36.9356009
  22.4245637  41.4076223  37.0026009  21.4995637  41.2466223  37.3476009
  22.7305637  42.3176223  37.2806009  22.4225637  41.3476223  36.0046009
  24.0085637  37.5626223  43.3356009  22.8795637  37.8916223  43.6906009
  24.8045637  36.7526223  44.0586009  25.6715637  36.4936223  43.6336009
  24.4355637  36.1186223  45.3346009  23.4175637  35.7086223  45.2556009
  25.3995637  34.9756223  45.6966009  26.4585637  35.2446223  45.5686009
  25.2425637  34.5806223  46.7116009  25.0915637  33.5956223  44.5676009
  25.9935637  32.8056223  45.0696009  24.2725637  37.0926223  46.5196009
  23.7785637  36.6746223  47.5666009  24.6275637  38.3716223  46.3206009
  25.1755637  38.5506223  45.5036009  24.3395637  39.4876223  47.2216009
  24.5825637  39.1906223  48.2526009  25.1665637  40.7466223  46.8616009
  24.8045637  41.5426223  47.5286009  26.2215637  40.5306223  47.0876009
  25.0405637  41.2056223  45.4036009  25.5335637  40.4836223  44.5096009
  24.4665637  42.2976223  45.2096009  22.8385637  39.8596223  47.2526009
  22.3985637  40.4466223  48.2406009  22.0955637  39.5476223  46.1726009
  22.5505637  39.0356223  45.4436009  20.6905637  39.9116223  45.9906009
  20.5045637  40.9306223  46.3596009  20.3475637  39.8616223  44.4816009
  20.6575637  38.8456223  44.1946009  19.2615637  39.9666223  44.3386009
  21.0855637  40.8936223  43.5986009  22.1705637  40.7376223  43.6936009
  20.6715637  40.7316223  42.1266009  19.5875637  40.8886223  42.0306009
  21.2045637  41.4726223  41.5116009  20.9265637  39.7186223  41.7826009
  20.8865637  42.3516223  44.0586009  21.2645637  42.4676223  45.0856009
  21.4375637  43.0266223  43.3876009  19.8155637  42.6016223  44.0326009
  19.7685637  38.9386223  46.7616009  19.8125637  37.7396223  46.4736009
  18.9435637  39.4466223  47.7116009  18.9005637  40.8306223  48.1976009
  18.8515637  41.5026223  47.3286009  19.8225637  41.0296223  48.7626009
  17.6555637  40.9116223  49.0706009  16.7735637  41.1926223  48.4766009
  17.7925637  41.6356223  49.8876009  17.5305637  39.4986223  49.6136009
  16.5035637  39.2356223  49.9086009  18.2035637  39.3686223  50.4736009
  17.9865637  38.6026223  48.4506009  18.5625637  37.7526223  48.8456009
  16.7895637  38.0746223  47.6296009  16.2175637  37.0616223  48.0326009
  16.4405637  38.7316223  46.5046009  16.8955637  39.6046223  46.3316009
  15.3565637  38.3206223  45.6026009  14.5715637  37.7906223  46.1626009
  14.7355637  39.5746223  44.9476009  14.4455637  40.2736223  45.7456009
  15.4975637  40.0436223  44.3076009  13.5995637  39.2516223  44.1686009
  13.2265637  40.0856223  43.7616009  15.8485637  37.2646223  44.5876009
  15.8915637  37.5216223  43.3846009  16.2165637  36.0896223  45.1186009
  16.2035637  36.0536223  46.1176009  16.6635637  34.9066223  44.3896009
  17.3355637  35.1656223  43.5586009  17.4455637  34.0456223  45.4056009
  18.2825637  34.6696223  45.7536009  16.7555637  33.8586223  46.2416009
  17.9905637  32.7046223  44.8806009  17.1415637  32.1306223  44.4806009
  18.6985637  32.9246223  44.0686009  18.6985637  31.8816223  45.9676009
  18.0705637  31.8956223  46.8706009  18.7955637  30.8476223  45.6056009
  20.0335637  32.3856223  46.3146009  20.0645637  33.2066223  46.8846009
  21.1935637  31.8386223  45.9156009  21.2265637  30.7886223  45.0846009
  20.3715637  30.3946223  44.7476009  22.1065637  30.4036223  44.8056009
  22.3475637  32.3426223  46.3676009  22.3375637  33.1196223  46.9966009
  23.2145637  31.9396223  46.0746009  15.4645637  34.1506223  43.7836009
  14.4125637  34.0756223  44.4216009  15.6615637  33.5746223  42.5866009
  16.5305637  33.7616223  42.1296009  14.6825637  32.7246223  41.8986009
  13.8115637  32.4746223  42.5226009  14.1785637  33.3756223  40.5806009
  13.4135637  32.7106223  40.1526009  13.5825637  34.7766223  40.7856009
  14.3475637  35.4416223  41.2126009  13.2465637  35.1786223  39.8186009
  12.7255637  34.7136223  41.4726009  15.1775637  33.4286223  39.5756009
  14.8005637  33.8546223  38.7526009  15.2605637  31.3336223  41.5576009
  14.4745637  30.3996223  41.3996009  16.5945637  31.2116223  41.4636009
  17.1355637  32.0466223  41.5696009  17.2995637  29.9546223  41.2356009
  16.6125637  29.1346223  40.9816009  18.3695637  30.0726223  40.1126009
  19.1005637  30.8356223  40.4196009  19.0995637  28.7386223  39.8476009
  18.3695637  27.9756223  39.5396009  19.8415637  28.8786223  39.0476009
  19.6085637  28.4096223  40.7656009  17.7735637  30.6046223  38.7976009
  17.3435637  31.6026223  38.9676009  18.5645637  30.6706223  38.0356009
  16.9855637  29.9216223  38.4486009  18.0085637  29.5766223  42.5446009
  18.9205637  30.2856223  42.9786009  17.5605637  28.4676223  43.1486009
  16.7705637  28.0206223  42.7286009  18.0855637  27.9166223  44.4016009
  18.1315637  28.7296223  45.1416009  17.2235637  26.7636223  44.9846009
  17.5095637  25.9116223  44.3496009  17.5495637  26.5756223  46.0186009
  15.7005637  26.9356223  44.9526009  15.2275637  28.0906223  44.8666009
  15.0295637  25.8916223  45.0946009  19.5355637  27.4256223  44.2516009
  19.9595637  27.0706223  43.1496009  20.2535637  27.3616223  45.3846009
  19.8675637  27.7876223  46.2026009  21.5735637  26.7316223  45.4856009
  22.2765637  27.1986223  44.7796009  22.1535637  26.8586223  46.9206009
  21.4645637  26.3186223  47.5866009  23.5795637  26.3076223  47.1026009
  24.2695637  26.8476223  46.4376009  23.8955637  26.4446223  48.1476009
  23.5935637  25.2366223  46.8536009  22.1695637  28.2196223  47.3006009
  22.5425637  28.3026223  48.2246009  21.5325637  25.2326223  45.1156009
  22.4235637  24.7706223  44.4056009  20.4675637  24.5306223  45.5476009
  19.8535637  25.0006223  46.1816009  20.2285637  23.1136223  45.2726009
  21.1495637  22.5336223  45.4286009  19.1415637  22.5796223  46.2286009
  19.4075637  22.9346223  47.2356009  18.1935637  23.0416223  45.9156009
  18.9815637  21.0416223  46.2506009  19.8285637  20.6186223  45.6896009
  19.0445637  20.7236223  47.3016009  17.6605637  20.5406223  45.6406009
  16.8445637  21.1116223  46.1066009  17.6905637  20.7596223  44.5626009
  17.4195637  19.0356223  45.8516009  17.4525637  18.8326223  46.9326009
  16.4195637  18.7926223  45.4636009  18.4255637  18.2076223  45.1666009
  19.3145637  18.3316223  45.6066009  18.1575637  17.2456223  45.2196009
  18.4875637  18.4836223  44.2076009  19.9145637  22.8206223  43.7926009
  20.3935637  21.8036223  43.2986009  19.1875637  23.7216223  43.0996009
  18.7585637  24.4626223  43.6166009  18.9365637  23.6456223  41.6516009
  18.4225637  22.7016223  41.4186009  18.0525637  24.8196223  41.1726009
  18.4515637  25.7276223  41.6476009  18.1845637  24.8886223  40.0826009
  16.5575637  24.6846223  41.4996009  16.1405637  23.7646223  41.0646009
  16.4355637  24.6616223  42.5926009  15.7815637  25.8816223  40.9466009
  15.5335637  26.8496223  41.6586009  15.4165637  25.8376223  39.6636009
  14.9075637  26.6006223  39.2656009  15.6535637  25.0416223  39.1066009
  20.2275637  23.6196223  40.8196009  20.3745637  22.7636223  39.9476009
  21.1315637  24.5636223  41.1206009  20.8745637  25.2326223  41.8176009
  22.4025637  24.7396223  40.4296009  22.2085637  24.6416223  39.3516009
  22.8965637  26.1566223  40.7096009  23.1045637  26.2676223  41.7836009
  23.8165637  26.3446223  40.1376009  22.1245637  26.8806223  40.4086009
  23.4555637  23.6776223  40.7836009  24.2585637  23.3366223  39.9166009
  23.3975637  23.1246223  42.0086009  22.8445637  23.5896223  42.6996009
  24.1705637  21.9486223  42.4146009  25.2305637  22.0906223  42.1566009
  24.0595637  21.7316223  43.9356009  23.0035637  21.8676223  44.2136009
  24.3635637  20.6956223  44.1456009  24.9345637  22.6986223  44.7556009
  25.9835637  22.4596223  44.5286009  24.7215637  23.7346223  44.4516009
  24.7205637  22.5786223  46.2676009  23.7035637  22.0646223  46.7316009
  25.6745637  23.0846223  47.0506009  25.5815637  23.0316223  48.0446009
  26.4785637  23.5156223  46.6396009  23.7735637  20.6756223  41.6476009
  24.6655637  19.9286223  41.2516009  22.4635637  20.4756223  41.4176009
  21.8205637  21.0636223  41.9086009  21.9225637  19.3706223  40.6156009
  22.4645637  18.4546223  40.8926009  20.4055637  19.1266223  40.8106009
  19.9435637  20.0366223  40.4006009  20.1085637  18.2596223  40.2016009
  19.9355637  18.9216223  42.2556009  20.7775637  18.6486223  43.1416009
  18.7015637  18.9806223  42.4496009  22.2475637  19.4956223  39.1186009
  22.5185637  18.4716223  38.4916009  22.2425637  20.7266223  38.5706009
  21.8895637  21.4826223  39.1206009  22.6205637  20.9966223  37.1786009
  22.1135637  20.2846223  36.5106009  22.2105637  22.4326223  36.7736009
  21.1435637  22.4396223  37.0386009  22.7375637  23.2056223  37.3526009
  22.3675637  22.7246223  35.2596009  23.4065637  22.5016223  34.9756009
  21.4075637  21.8816223  34.3956009  20.3675637  22.1036223  34.6786009
  21.5585637  22.1256223  33.3336009  21.6105637  20.8126223  34.5576009
  22.2595637  24.2236223  34.9326009  23.0485637  24.7736223  35.4666009
  22.3775637  24.3726223  33.8496009  21.2745637  24.5976223  35.2486009
  24.1165637  20.7376223  36.9286009  24.4575637  20.1026223  35.9326009
  24.9715637  21.2016223  37.8526009  24.5965637  21.7766223  38.5796009
  26.4165637  20.9946223  37.8106009  26.7645637  21.2716223  36.8046009
  27.0675637  21.9296223  38.8276009  26.7355637  21.6586223  39.8406009
  28.1615637  21.8366223  38.7636009  26.7745637  22.9676223  38.6116009
  26.8365637  19.5356223  38.0436009  27.8285637  19.1136223  37.4556009
  26.0595637  18.7796223  38.8426009  25.3685637  19.2546223  39.3876009
  26.2505637  17.3446223  39.0626009  27.3195637  17.1186223  39.1876009
  25.5005637  16.9096223  40.3416009  25.7915637  17.6116223  41.1366009
  24.4255637  17.0176223  40.1336009  25.7935637  15.4646223  40.7996009
  25.5365637  14.8066223  39.9566009  26.8745637  15.4056223  40.9936009
  25.0235637  15.0156223  42.0536009  23.9575637  14.9296223  41.7956009
  25.4055637  14.0316223  42.3636009  25.1615637  15.9506223  43.1796009
  26.0405637  15.9226223  43.6546009  24.2285637  16.8196223  43.6066009
  22.9945637  16.8436223  43.0856009  22.7485637  16.2016223  42.3586009
  22.3245637  17.5026223  43.4266009  24.5475637  17.6766223  44.5826009
  25.4665637  17.6596223  44.9776009  23.8665637  18.3306223  44.9126009
  25.8685637  16.5036223  37.8286009  26.5485637  15.5126223  37.5626009
  24.8365637  16.9346223  37.0756009  24.2555637  17.6496223  37.4636009
  24.4265637  16.3156223  35.8086009  24.4365637  15.2196223  35.9036009
  22.9925637  16.7666223  35.4396009  22.5655637  15.9856223  34.7936009
  22.4205637  16.8206223  36.3776009  22.9275637  18.0146223  34.7766009
  21.9735637  18.2346223  34.5736009  25.4455637  16.5356223  34.6686009
  25.5505637  15.6826223  33.7886009  26.1895637  17.6536223  34.7296009
  25.9505637  18.3106223  35.4446009  27.2845637  17.9866223  33.8166009
  27.0835637  17.5946223  32.8086009  27.4075637  19.5226223  33.7336009
  27.5865637  19.8226223  34.7766009  28.3075637  19.7266223  33.1356009
  26.2355637  20.3156223  33.1716009  25.2485637  19.7256223  32.3486009
  25.2885637  18.6476223  32.1356009  24.2165637  20.5126223  31.8026009
  23.4525637  20.0456223  31.1636009  24.1585637  21.8926223  32.0746009
  23.1655637  22.6516223  31.5266009  22.5405637  22.1226223  30.9526009
  25.1285637  22.4806223  32.9096009  25.0785637  23.5566223  33.1346009
  26.1595637  21.6956223  33.4556009  26.9145637  22.1566223  34.1096009
  28.6325637  17.3836223  34.2576009  29.5155637  17.2376223  33.4126009
  28.7755637  17.0536223  35.5536009  27.9795637  17.1766223  36.1456009
  30.0075637  16.5326223  36.1466009  29.7685637  16.1016223  37.1296009
  30.4085637  15.7466223  35.4896009  31.0745637  17.6266223  36.3256009
  32.2605637  17.3156223  36.2206009  30.6635637  18.8866223  36.5616009
  29.6745637  19.0266223  36.6166009  31.5415637  20.0566223  36.7016009
  32.6165637  19.8396223  36.7846009  31.3045637  21.0766223  35.5436009
  32.0015637  21.9196223  35.6606009  31.5375637  20.4026223  34.1746009
  30.8405637  19.5596223  34.0566009  31.3665637  21.1346223  33.3716009
  32.5715637  20.0326223  34.1196009  29.9615637  21.8516223  35.5986009
  29.1535637  21.1056223  35.5896009  29.9405637  22.4026223  36.5506009
  29.7645637  22.8336223  34.4346009  29.7845637  22.2836223  33.4826009
  28.7955637  23.3416223  34.5436009  30.5725637  23.5796223  34.4436009
  31.3095637  20.7576223  38.0656009  30.2695637  20.5216223  38.6826009
  32.2485637  21.6246223  38.5196009  33.5955637  21.8186223  37.9786009
  33.5645637  22.6016223  37.2066009  33.9425637  20.8766223  37.5296009
  34.4205637  22.2226223  39.1846009  35.3115637  22.7946223  38.8866009
  34.7285637  21.3446223  39.7706009  33.4465637  23.0826223  39.9686009
  33.4415637  24.1146223  39.5886009  33.6885637  23.0896223  41.0416009
  32.0635637  22.4336223  39.7456009  31.8085637  21.7376223  40.5576009
  30.9675637  23.5126223  39.6306009  30.8445637  24.1336223  38.5746009
  30.2355637  23.7386223  40.7366009  30.2355637  23.0236223  41.4356009
  29.3735637  24.9056223  40.9366009  29.4055637  25.5376223  40.0366009
  27.9095637  24.4956223  41.1986009  27.5215637  24.0866223  40.2536009
  27.8305637  23.7326223  41.9876009  26.9775637  25.6306223  41.5956009
  26.7695637  26.7126223  40.7136009  27.2495637  26.7136223  39.7236009
  25.9615637  27.7726223  41.0926009  25.8115637  28.6186223  40.4056009
  25.3425637  27.7696223  42.3346009  24.6885637  28.6076223  42.6176009
  25.5445637  26.7166223  43.2186009  25.0485637  26.7256223  44.2006009
  26.3685637  25.6556223  42.8666009  26.5455637  24.8366223  43.5786009
  29.9215637  25.7846223  42.0646009  30.1645637  25.2736223  43.1586009
  30.0695637  27.0886223  41.7796009  29.8675637  27.3696223  40.8416009
  30.5375637  28.1036223  42.7216009  30.4505637  27.7696223  43.7656009
  32.0155637  28.5116223  42.4266009  32.0955637  28.6186223  41.3346009
  32.4975637  29.8136223  43.1086009  32.4175637  29.7076223  44.2006009
  33.5455637  30.0056223  42.8336009  31.8715637  30.6556223  42.7766009
  32.9765637  27.3596223  42.7986009  33.1965637  27.4566223  43.8716009
  32.4365637  26.4176223  42.6196009  34.2845637  27.3536223  42.0096009
  34.8255637  28.2946223  42.1886009  34.9055637  26.5066223  42.3356009
  34.0655637  27.2556223  40.9356009  29.6145637  29.3286223  42.6326009
  29.5045637  29.9356223  41.5676009  28.9865637  29.6786223  43.7656009
  29.0215637  29.0346223  44.5306009  28.2145637  30.9096223  43.9306009
  27.5835637  31.0846223  43.0466009  27.3065637  30.7896223  45.1666009
  27.8965637  30.3736223  45.9966009  26.9495637  31.7936223  45.4386009
  26.1035637  29.8776223  44.8876009  25.6455637  30.2176223  43.9476009
  26.5005637  28.8606223  44.7556009  25.0525637  29.8736223  45.9916009
  25.4305637  30.0416223  47.1706009  23.8675637  29.7066223  45.6316009
  29.1365637  32.1256223  44.0536009  30.1245637  32.0576223  44.7846009
  28.7925637  33.2076223  43.3396009  27.9555637  33.1696223  42.7936009
  29.6095637  34.4136223  43.2696009  30.2995637  34.5146223  44.1206009
  30.4325637  34.4926223  41.9476009  31.0765637  35.3816223  42.0236009
  31.2965637  33.2596223  41.6636009  30.6535637  32.3706223  41.5876009
  31.8385637  33.4006223  40.7166009  32.0185637  33.1206223  42.4816009
  29.6365637  34.7556223  40.8096009  30.2185637  34.7946223  39.9976009
  28.7815637  35.7016223  43.4086009  27.5625637  35.7016223  43.2476009
  29.5125637  36.7886223  43.6786009  30.4515637  36.6146223  43.9766009
  29.0555637  38.1656223  43.6136009  28.2275637  38.2516223  42.8956009
  28.5575637  38.6316223  44.9966009  27.6685637  38.0406223  45.2596009
  29.3535637  38.4426223  45.7316009  28.2275637  40.0056223  45.0026009
  27.9095637  40.2676223  45.9136009  30.2395637  38.9996223  43.1196009
  31.2755637  39.0396223  43.7826009  30.0395637  39.6886223  41.9886009
  29.2195637  39.4656223  41.4616009  30.9375637  40.7166223  41.4696009
  31.9635637  40.3206223  41.4276009  30.4905637  41.0666223  40.0516009
  29.4685637  41.4726223  40.0786009  31.1715637  41.8186223  39.6266009
  30.5085637  40.1616223  39.4266009  30.9545637  41.9996223  42.3196009
  31.8875637  42.7886223  42.1796009  29.9245637  42.1986223  43.1596009
  29.1645637  41.5506223  43.1026009  29.7795637  43.3576223  44.0316009
  30.1825637  44.2586223  43.5446009  28.2835637  43.5846223  44.3266009
  27.7695637  43.6536223  43.3566009  27.9235637  42.6986223  44.8696009
  27.9875637  44.8476223  45.1536009  28.4295637  44.7186223  46.1526009
  28.4585637  45.7066223  44.6526009  26.4815637  45.0996223  45.2906009
  26.0695637  45.2196223  44.2776009  26.0365637  44.2126223  45.7646009
  26.1545637  46.3426223  46.1256009  26.5895637  46.2196223  47.1286009
  26.6005637  47.2226223  45.6396009  24.6995637  46.5316223  46.2426009
  24.3045637  46.6436223  45.3306009  24.2945637  45.7326223  46.6866009
  24.5115637  47.3476223  46.7896009  30.6475637  43.2456223  45.2936009
  31.4245637  44.1596223  45.5686009  30.5025637  42.1316223  46.0276009
  29.8795637  41.4316223  45.6796009  31.1655637  41.8956223  47.3146009
  31.5235637  42.8066223  47.8156009  30.2105637  41.1406223  48.2796009
  30.7045637  41.0986223  49.2616009  28.8305637  41.8006223  48.4296009
  28.3345637  41.8426223  47.4486009  28.2145637  41.2116223  49.1246009
  28.9525637  42.8206223  48.8226009  30.0505637  39.7766223  47.9336009
  29.4295637  39.3386223  48.5836009  32.4765637  41.0866223  47.1926009
  33.1665637  40.9266223  48.1996009  32.7895637  40.5856223  45.9846009
  32.1025637  40.7566223  45.2786009  33.8985637  39.6796223  45.6696009
  33.8585637  39.4206223  44.6016009  35.2825637  40.3246223  45.9726009
  35.1895637  41.3966223  45.7456009  35.4665637  40.1926223  47.0486009
  36.4645637  39.7286223  45.1716009  36.2985637  38.6426223  45.1116009
  36.4215637  40.1616223  44.1616009  37.8425637  40.0026223  45.7856009
  37.9835637  41.0866223  45.9116009  37.9175637  39.5066223  46.7646009
  38.9075637  39.4876223  44.9146009  39.2885637  38.5966223  45.1616009
  39.4045637  40.1206223  43.8426009  38.9965637  41.3526223  43.5216009
  38.3115637  41.8126223  44.0866009  39.3785637  41.8086223  42.7176009
  40.3095637  39.5056223  43.0756009  40.6095637  38.5796223  43.3056009
  40.6825637  39.9736223  42.2746009  33.7255637  38.2666223  46.2856009
  34.7055637  37.5336223  46.3736009  32.4965637  37.8646223  46.6736009
  31.7675637  38.5476223  46.7186009  32.1885637  36.4886223  47.0916009
  32.8365637  36.1986223  47.9326009  30.7125637  36.3836223  47.5456009
  30.5895637  37.0906223  48.3786009  30.0975637  36.7106223  46.6936009
  30.2605637  34.9706223  47.9956009  30.5085637  34.2526223  47.2006009
  30.8235637  34.7186223  48.9066009  28.7615637  34.8646223  48.3016009
  28.0025637  35.8196223  48.1456009  28.3225637  33.6806223  48.7296009
  27.3535637  33.5576223  48.9436009  28.9645637  32.9206223  48.8346009
  32.4835637  35.5116223  45.9426009  32.0345637  35.7666223  44.8296009
  33.2395637  34.4416223  46.2356009  33.6225637  34.4276223  47.1596009
  33.5435637  33.3206223  45.3406009  34.1715637  32.6266223  45.9186009
  32.5815637  32.8396223  45.1116009  34.2595637  33.6636223  44.0196009
  34.4495637  32.7496223  43.2206009  34.6265637  34.9336223  43.7556009
  34.4535637  35.6126223  44.4696009  35.1735637  35.3956223  42.4736009
  34.5895637  35.0356223  41.6136009  35.2695637  36.9506223  42.3946009
  35.7695637  37.2806223  43.3166009  36.0325637  37.5016223  41.1686009
  35.5325637  37.1716223  40.2466009  36.0435637  38.6006223  41.2066009
  37.0655637  37.1246223  41.1796009  33.8725637  37.5876223  42.4466009
  33.3775637  37.3106223  43.3896009  33.9655637  38.6826223  42.3886009
  33.2725637  37.2266223  41.5986009  36.5455637  34.7706223  42.1736009
  36.7085637  34.1726223  41.1106009  37.4745637  34.8576223  43.1406009
  37.2845637  35.4806223  43.8996009  38.7865637  34.2036223  43.0896009
  39.2755637  34.4806223  42.1446009  39.7135637  34.5986223  44.2596009
  39.2355637  34.1736223  45.1546009  40.7055637  34.1426223  44.1236009
  39.8675637  36.1086223  44.4336009  40.3615637  36.7446223  43.4796009
  39.5505637  36.6076223  45.5356009  38.6845637  32.6756223  42.9856009
  39.4435637  32.0916223  42.2166009  37.7225637  32.0656223  43.7016009
  37.2335637  32.6216223  44.3736009  37.4535637  30.6286223  43.6626009
  38.3995637  30.0816223  43.7916009  36.4735637  30.1946223  44.7816009
  36.7425637  30.6636223  45.7396009  35.5175637  30.6076223  44.4276009
  36.3345637  28.6796223  44.9766009  37.3115637  27.9536223  44.6866009
  35.2805637  28.2796223  45.5176009  36.9885637  30.1576223  42.2706009
  37.5235637  29.1656223  41.7856009  36.0465637  30.8856223  41.6416009
  35.6495637  31.6416223  42.1616009  35.4945637  30.5866223  40.3166009
  35.0535637  29.5816223  40.3876009  34.3785637  31.5896223  39.9836009
  34.8055637  32.5996223  39.9006009  33.9085637  31.3116223  39.0286009
  33.6225637  31.5766223  40.7826009  36.5515637  30.5376223  39.2006009
  36.5725637  29.5676223  38.4416009  37.4285637  31.5546223  39.1566009
  37.2365637  32.3506223  39.7306009  38.5445637  31.6326223  38.2136009
  38.2175637  31.2916223  37.2206009  39.0505637  33.0876223  38.0946009
  39.1745637  33.5716223  39.0746009  40.0255637  33.0296223  37.5896009
  38.1805637  34.0176223  37.2566009  38.2155637  33.9446223  35.8486009
  38.8795637  33.2186223  35.3566009  37.4165637  34.7846223  35.0836009
  37.4685637  34.7346223  33.9856009  36.5545637  35.6846223  35.6976009
  35.9375637  36.3576223  35.0836009  36.4705637  35.7366223  37.0826009
  35.7725637  36.4396223  37.5616009  37.2635637  34.9056223  37.8616009
  37.1805637  34.9356223  38.9576009  39.6885637  30.6386223  38.5046009
  40.2285637  30.0836223  37.5486009  40.0275637  30.3996223  39.7896009
  39.5575637  30.9186223  40.5036009  41.0775637  29.4466223  40.1946009
  41.9755637  29.6236223  39.5846009  41.4565637  29.5956223  41.6846009
  40.5045637  29.5386223  42.2326009  42.0465637  28.6886223  41.8816009
  42.2345637  30.8176223  42.1476009  42.4215637  31.9606223  41.3386009
  42.0515637  31.9666223  40.3026009  43.0805637  33.0906223  41.8566009
  43.2335637  33.9746223  41.2196009  43.5615637  33.0846223  43.1816009
  44.1475637  34.1966223  43.7096009  44.1835637  34.9616223  43.0666009
  43.4205637  31.9326223  43.9736009  43.8265637  31.9116223  44.9956009
  42.7585637  30.8046223  43.4566009  42.6455637  29.9016223  44.0746009
  40.6745637  27.9856223  39.9576009  41.5245637  27.1926223  39.5576009
  39.3955637  27.6566223  40.2086009  38.8065637  28.3566223  40.6116009
  38.8335637  26.3276223  39.9776009  39.4825637  25.5806223  40.4576009
  37.3995637  26.1806223  40.5526009  36.8055637  26.9946223  40.1126009
  36.7065637  24.8346223  40.2786009  37.3005637  24.0196223  40.7186009
  35.7025637  24.8406223  40.7276009  36.6205637  24.6806223  39.1926009
  37.4595637  26.3306223  41.9556009  36.5405637  26.2376223  42.3396009
  38.8025637  25.9766223  38.4816009  39.1015637  24.8336223  38.1516009
  38.5165637  26.9606223  37.6096009  38.1775637  27.8276223  37.9746009
  38.5485637  26.7856223  36.1566009  37.9875637  25.8836223  35.8706009
  37.9015637  28.0076223  35.4676009  36.9145637  28.0476223  35.9516009
  38.4595637  28.9276223  35.6966009  37.7195637  27.8836223  33.9366009
  38.7125637  27.7406223  33.4856009  36.8055637  26.7056223  33.5516009
  35.8125637  26.8486223  34.0026009  36.7075637  26.6596223  32.4566009
  37.2425637  25.7656223  33.9196009  37.2235637  29.2026223  33.3176009
  37.9545637  29.9996223  33.5176009  37.1065637  29.0776223  32.2306009
  36.2545637  29.4746223  33.7616009  39.9615637  26.4896223  35.6176009
  40.0935637  25.6446223  34.7356009  40.9865637  27.1466223  36.1856009
  40.7505637  27.8806223  36.8236009  42.4045637  26.9066223  35.8936009
  42.6375637  26.8926223  34.8186009  43.2905637  27.9846223  36.5796009
  42.9165637  28.0786223  37.6096009  44.8065637  27.6956223  36.6076009
  45.1825637  27.6026223  35.5776009  45.3285637  28.5206223  37.1146009
  44.9915637  26.7576223  37.1516009  43.0465637  29.3556223  35.9346009
  41.9885637  29.6316223  36.0496009  43.6775637  30.1106223  36.4266009
  43.2985637  29.3086223  34.8646009  42.8665637  25.5006223  36.3276009
  43.6125637  24.8626223  35.5866009  42.3695637  25.0336223  37.4856009
  41.8895637  25.6926223  38.0636009  42.5665637  23.6776223  37.9976009
  43.6285637  23.3966223  37.9426009  42.1175637  23.6226223  39.4706009
  41.1225637  24.0876223  39.5276009  42.0415637  22.5616223  39.7496009
  43.0735637  24.3406223  40.4376009  44.0415637  23.8176223  40.4186009
  43.2085637  25.3746223  40.0866009  42.5285637  24.3546223  41.8716009
  41.5165637  24.7866223  41.8696009  42.4865637  23.3236223  42.2526009
  43.3795637  25.1526223  42.7656009  44.3575637  24.9586223  42.6906009
  42.9765637  26.0816223  43.6496009  43.8925637  26.6906223  44.4106009
  44.8585637  26.4496223  44.3146009  43.6075637  27.3836223  45.0726009
  41.6845637  26.4056223  43.7926009  40.9935637  25.9496223  43.2316009
  41.4175637  27.1016223  44.4596009  41.8585637  22.6056223  37.1446009
  42.4345637  21.5316223  36.9846009  40.6735637  22.9096223  36.5786009
  40.2175637  23.7456223  36.8826009  39.9685637  22.0356223  35.6316009
  39.9585637  21.0076223  36.0226009  38.5045637  22.4996223  35.4196009
  38.5505637  23.5716223  35.1766009  38.1255637  21.9436223  34.5496009
  37.5555637  22.2846223  36.6206009  37.9845637  22.8556223  37.4576009
  36.5765637  22.7086223  36.3516009  37.3805637  20.8246223  37.0376009
  37.1565637  19.9886223  36.1336009  37.4565637  20.5666223  38.2586009
  40.6975637  21.9006223  34.2816009  40.7075637  20.8006223  33.7316009
  41.3165637  22.9906223  33.7876009  41.1685637  23.8626223  34.2546009
  42.1405637  22.9836223  32.5706009  41.6425637  22.4206223  31.7676009
  42.4835637  24.4166223  32.0646009  42.9055637  24.9646223  32.9206009
  43.4795637  24.4616223  30.8816009  43.0575637  23.9146223  30.0256009
  43.6615637  25.5076223  30.5936009  44.4285637  23.9946223  31.1836009
  41.2185637  25.1986223  31.6626009  40.9355637  24.8776223  30.6496009
  40.4195637  24.9286223  32.3686009  41.4215637  26.7166223  31.6796009
  42.2195637  26.9876223  30.9736009  40.4865637  27.2146223  31.3846009
  41.7045637  27.0376223  32.6926009  43.4485637  22.2036223  32.7736009
  43.8335637  21.4396223  31.8886009  44.0775637  22.3836223  33.9476009
  43.7195637  23.1016223  34.5446009  45.2905637  21.6836223  34.3576009
  46.0845637  21.8206223  33.6086009  45.7765637  22.2576223  35.7026009
  45.7995637  23.3516223  35.5936009  45.0255637  21.9806223  36.4576009
  47.1635637  21.7566223  36.1496009  47.1485637  20.6566223  36.1296009
  47.9065637  22.1256223  35.4266009  47.5385637  22.2366223  37.5586009
  46.7115637  21.9946223  38.2426009  48.4465637  21.7046223  37.8796009
  47.7935637  23.6846223  37.6206009  48.1715637  24.0926223  36.7896009
  47.5545637  24.4826223  38.6766009  46.9995637  24.0096223  39.7996009
  46.7535637  23.0426223  39.8626009  46.8335637  24.6256223  40.5696009
  47.8885637  25.7746223  38.6046009  48.3105637  26.1326223  37.7716009
  47.7155637  26.3766223  39.3836009  45.0905637  20.1576223  34.4146009
  45.9385637  19.4406223  33.8906009  43.9595637  19.7046223  34.9926009
  43.3905637  20.3786223  35.4626009  43.5615637  18.2946223  35.0556009
  44.4125637  17.6836223  35.3916009  42.3925637  18.1006223  36.0476009
  41.6015637  18.7936223  35.7256009  42.0485637  17.0646223  35.9146009
  42.7165637  18.3466223  37.5346009  43.3705637  19.2316223  37.5546009
  41.7565637  18.5896223  38.0126009  43.3935637  17.1896223  38.3006009
  43.2525637  17.4186223  39.3676009  42.8205637  16.2876223  38.0416009
  44.8865637  16.9466223  38.0216009  45.2475637  16.1896223  38.7336009
  44.9835637  16.5596223  36.9966009  45.6905637  18.1756223  38.1616009
  45.3425637  18.8746223  37.5376009  45.6295637  18.5086223  39.1026009
  46.6455637  17.9766223  37.9396009  43.1945637  17.6866223  33.6946009
  43.5015637  16.5166223  33.4806009  42.5615637  18.4706223  32.8046009
  42.2685637  19.3876223  33.1096009  42.1635637  18.0236223  31.4666009
  41.6965637  17.0396223  31.5196009  41.1505637  19.0166223  30.8756009
  40.3035637  19.0876223  31.5576009  41.5915637  20.0036223  30.7406009
  40.5925637  18.6066223  29.5356009  41.0785637  19.1196223  28.3286009
  40.3895637  18.4846223  27.3906009  40.6405637  18.7416223  26.3616009
  39.4955637  17.6286223  27.8856009  38.8525637  17.0366223  27.3796009
  39.6015637  17.6896223  29.2636009  38.9565637  17.0706223  29.8876009
  43.3565637  17.7806223  30.5216009  43.2795637  16.8776223  29.6906009
  44.4425637  18.5556223  30.6896009  44.3405637  19.3466223  31.2926009
  45.7095637  18.3866223  29.9726009  45.5245637  18.1846223  28.9076009
  46.5365637  19.6876223  30.0926009  46.5245637  19.9846223  31.1516009
  47.5665637  19.4476223  29.7916009  46.0065637  20.8496223  29.2276009
  45.7515637  20.4376223  28.2396009  45.0955637  21.2346223  29.7106009
  47.0205637  21.9946223  29.0596009  47.9255637  21.5616223  28.6096009
  46.5765637  22.7206223  28.3626009  47.3895637  22.7046223  30.3696009
  46.4975637  23.2256223  30.7486009  47.7095637  21.9466223  31.0996009
  48.4775637  23.6796223  30.1636009  49.2885637  23.2066223  29.8196009
  48.1875637  24.3676223  29.4986009  48.6945637  24.1256223  31.0316009
  46.5385637  17.1536223  30.4076009  47.5735637  16.8996223  29.7916009
  46.0925637  16.4096223  31.4366009  45.2415637  16.7086223  31.8686009
  46.7945637  15.2506223  32.0076009  47.3815637  14.7436223  31.2276009
  47.7595637  15.7136223  33.1316009  48.3405637  14.8266223  33.4246009
  48.4305637  16.4566223  32.6756009  47.0875637  16.3266223  34.3856009
  46.3165637  17.0076223  33.9966009  46.6085637  15.5206223  34.9596009
  48.0425637  17.1036223  35.2976009  47.7495637  17.1486223  36.5126009
  49.0255637  17.6786223  34.7786009  45.7335637  14.2766223  32.4926009
  44.6365637  14.1176223  31.9546009  45.9317506  13.5828875  33.4875349
  41.0065637  32.4026223  18.2216009  42.4525637  33.4776223  18.5206009
  42.8926197  33.7126613  17.5514737  43.1837109  32.9105158  19.0967208
  42.1965637  34.8166223  19.2536009  43.1204004  35.3945065  19.2795941
  41.4333899  35.3807491  18.7174791  41.7235637  34.5576223  20.6846009
  42.4415637  33.8456223  21.3816009  40.5355637  35.0216223  21.1396009
  39.8455637  36.2216223  20.6446009  40.5405637  37.5236223  21.0906009
  39.6755637  38.7536223  20.7436009  39.6815637  39.0886223  19.2396009
  39.4216738  38.1989828  18.6678318  38.9534628  39.8747254  19.0395739
  40.6744886  39.4306036  18.9476265  40.0385637  39.9836223  21.5966009
  40.0245678  39.7115231  22.6519995  41.0346912  40.3326589  21.3245649
  39.3136758  40.7775048  21.4166341  38.7237801  38.5116810  20.9795509
  41.5013503  37.6076040  20.5827267  40.7055596  37.4926299  22.1675948
  39.8265554  36.1906082  19.5552080  38.8213950  36.2206244  21.0176658
  39.7955637  34.2146223  22.1186009  38.7733290  34.5907262  22.1596133
  39.7705357  33.1833595  21.7665062  40.3535637  34.2266223  23.5246009
  41.1715637  35.1496223  24.1756009  41.5417325  36.0460280  23.7003831
  41.4685637  34.8116223  25.4946009  42.0686128  35.4236834  26.1516567
  40.9095637  33.6066223  25.8656009  41.0285288  33.1616806  26.8424705
  39.9985637  32.8936223  24.5886009  28.2305637  42.0306223  27.8996009
  26.6955637  41.9056223  28.0166009  26.1655637  40.4746223  27.8756009
  25.9015637  42.9626223  27.2376009  26.4015637  42.3066223  29.8236009
  27.2755637  41.2946223  31.1386009  28.7735637  41.4506223  30.9536009
  26.6165637  39.9406223  31.3256009  26.8275637  42.2346223  32.4826009
  27.2985637  43.5946223  33.3886009  27.0385637  44.8296223  32.5556009
  28.6405637  43.2956223  34.0176009  26.0885637  43.4476223  34.6066009
  24.7515637  43.7786223  34.2706009  24.1685637  42.8636223  34.1646009
  24.7395637  44.3266223  33.3286009  24.1365637  44.6516223  35.3786009
  24.9445637  45.9006223  35.7566009  24.0955637  46.9746223  36.1306009
  24.6285637  47.7396223  36.3606009  25.8695637  45.4136223  36.8746009
  26.2545637  46.3606223  37.8486009  26.8095637  47.0306223  37.4426009
  26.7545637  44.9446223  36.4446009  25.5485637  46.2056223  34.9026009
  23.1275637  44.9466223  35.0896009  24.0805637  43.8836223  36.5766009
  24.9865637  44.3516223  37.5286009  24.4015637  44.8596223  38.2956009
  25.7035637  43.2056223  38.2146009  26.7045637  42.4386223  37.7346009
  27.0895637  42.5326223  36.7296009  27.1675637  41.5686223  38.5996009
  26.4655637  41.8196223  39.7156009  26.5755637  41.1946223  41.0196009
  27.2985637  40.2676223  41.3646009  25.6825637  41.7876223  41.8766009
  25.6775637  41.4416223  42.8256009  24.7895637  42.8026223  41.5936009
  24.0135637  43.2106223  42.5966009  24.0975637  42.7816223  43.5066009
  23.3415637  43.9496223  42.4466009  24.6885637  43.3436223  40.4286009
  25.5555637  42.8166223  39.5156009  29.7985637  42.4156223  29.3276009
  65.9628340  60.7877960  58.3027830  65.8822390  59.8732570  58.0319540
  65.5492760  61.2845030  57.5967540  64.0946380  62.5656980  60.1837100
  63.3188480  62.0857420  60.4735670  64.7459310  61.8862630  60.0093260
  58.1112210  62.8776790  61.0612860  57.2797090  62.6225500  61.4609370
  58.7193190  62.9487560  61.7970780  56.5204160  57.8378680  54.8455250
  55.6320860  58.1794650  54.7435130  56.8045350  57.6379000  53.9536080
  54.4837170  60.4384330  60.7294950  55.0553280  59.6706530  60.7298590
  54.4838710  60.7373090  59.8201560  64.5660540  58.0484550  60.4176190
  64.9425360  57.1756430  60.3049860  64.4680050  58.3843250  59.5266630
  58.6965550  56.4210180  55.8793630  58.8032300  57.3213910  56.1862390
  57.7857910  56.3728150  55.5888280  56.3448710  58.3429190  61.1246220
  57.0258820  58.6067560  61.7433620  56.0296760  57.5030060  61.4584230
  60.5373280  59.3896550  60.2118810  61.0451500  59.8877520  60.8523830
  61.0686520  58.6131750  60.0358170  65.2080470  64.1414420  55.9772130
  64.5897740  64.6063870  55.4134850  65.7203720  64.8341900  56.3941640
  62.1852600  53.2287340  58.8097270  62.4927580  52.6734230  58.0932770
  61.2553300  53.3631800  58.6270260  64.5733360  61.2936170  55.5457390
  63.6462640  61.2273550  55.7745860  64.7258180  62.2316300  55.4312630
  64.5602440  57.5653170  52.5424550  63.6206110  57.7267130  52.6277010
  64.8785700  58.2838850  51.9960540  68.6030650  62.8556470  56.0492640
  67.9843070  62.5176020  55.4018940  68.5855100  62.2116230  56.7571830
  60.1790000  61.8200910  58.3277120  59.7747000  61.1078160  57.8323020
  60.2653120  61.4754150  59.2165160  66.7795350  62.0943280  53.0565390
  67.2188630  61.2565710  52.9103210  67.4923770  62.7272680  53.1429530
  56.8794630  60.7145890  55.8283770  56.7592230  61.4407980  55.2165040
  56.5695520  59.9448800  55.3511680  54.5180000  63.8861030  61.6352410
  54.5960420  64.0209800  60.6908130  55.1321680  63.1776920  61.8280530
  59.3458290  54.0580960  59.2107440  58.9026440  54.8390500  58.8791960
  59.9043280  54.3810850  59.9178380  62.4617110  53.6791660  54.0913270
  61.8371290  53.6751530  54.8166580  62.3747230  52.8122620  53.6949240
  61.3834190  54.6028290  61.0697040  61.6806520  55.5091120  60.9889060
  61.9319750  54.1147070  60.4556610  59.1372510  59.1814530  56.9388690
  58.9113430  58.9651700  57.8435310  58.3565040  59.6142990  56.5934660
  66.3670270  59.1877900  55.5379340  65.7679160  59.9113700  55.3542960
  66.9149880  59.1254680  54.7555790  64.9735140  57.8241440  57.5682620
  65.3664710  58.1413640  56.7551310  65.3351990  56.9453320  57.6827140
  54.0099310  54.4142240  59.7912820  53.7212360  54.9845100  60.5037800
  54.7545070  53.9346690  60.1544050  54.1969540  58.3562360  51.0015540
  54.1144210  59.2993120  51.1430530  53.8452600  58.2137270  50.1227890
  61.9967670  57.0901390  60.0685890  62.0003730  56.6491340  59.2190430
  62.8918790  57.4118720  60.1757710  57.8470050  56.9727880  59.0280100
  57.5070100  57.4503110  59.7847150  57.0847370  56.5193000  58.6681200
  62.0587820  58.0913470  53.0592650  62.1800640  58.0499950  54.0078470
  61.6736330  58.9537620  52.9039380  66.0216190  55.8680870  61.0756340
  66.0388930  56.3189520  61.9198190  65.7731770  54.9686510  61.2889780
  61.0709320  60.4014610  52.4575950  60.5026220  59.9532860  51.8311860
  61.7798320  60.7607390  51.9241100  55.1616130  55.8946860  57.9444770
  54.8763050  55.5302530  58.7823390  55.0994990  55.1627320  57.3307910
  58.6156800  64.3972800  54.7302360  57.8419060  63.8570420  54.5701080
  59.3451430  63.8779410  54.3920120  64.8354720  54.7876120  54.6658140
  64.0219330  54.2889290  54.5903450  64.6416670  55.6274370  54.2494490
  67.5503110  59.1595770  52.9620300  68.4382730  59.4713000  52.7871640
  67.5208200  58.2868020  52.5700880  58.6594200  64.0653180  58.3681170
  59.1772870  63.2621440  58.3138060  58.2078220  64.0032320  59.2098000
  66.4291110  64.6535300  59.0053980  66.7814930  64.0563430  58.3455350
  65.5453440  64.3279530  59.1762230  54.6546790  61.0305810  51.9041470
  55.5241640  61.3130610  52.1877390  54.1637110  61.8441680  51.7890280
  61.8181600  62.4179020  56.0249750  62.2744380  63.2284270  56.2509940
  61.4669810  62.1002160  56.8568240  57.7193380  52.7616670  56.4972270
  57.5908010  52.7534570  57.4457190  56.8955400  53.0999760  56.1463280
  56.6393300  62.8479280  54.0323530  56.0321250  63.5878180  54.0418830
  57.1142650  62.9378640  53.2061730  61.5472150  58.2472990  55.9325860
  60.8388300  58.7159330  56.3739470  61.8316630  57.5895000  56.5671050
  65.5787580  54.9723650  57.3721650  65.4555360  54.9909780  56.4231160
  66.5272140  55.0202590  57.4920050  59.7507170  56.5558070  53.3076570
  60.5997700  56.9928220  53.2416760  59.3838440  56.8678330  54.1348630
  58.6498590  62.8090430  51.7812100  59.4161860  62.6971790  52.3437530
  58.7273280  62.1128400  51.1288870  57.3445350  60.2415500  52.4644990
  57.4248940  59.2943010  52.5762390  58.2365100  60.5722380  52.5705650
  61.7739770  64.7844610  51.2547450  61.6690410  64.1696960  51.9808830
  61.6063990  64.2610500  50.4710460  65.0142500  63.8464640  51.8589440
  64.4652600  64.2933940  52.5032180  65.6361760  63.3413890  52.3827110
  60.6817620  62.8055560  53.7554740  61.1034040  62.6395430  54.5986130
  60.8068460  61.9955790  53.2609880  63.1945260  61.8293170  51.0031840
  63.7150920  61.1142190  50.6372990  63.8413660  62.4679040  51.3032350
  59.5776520  58.8788790  50.7012900  59.3765580  58.0156150  51.0626240
  59.4068570  58.7922150  49.7634500  67.0564830  53.6897020  53.2299780
  67.3367120  52.8464920  53.5859200  66.2830560  53.9220130  53.7438530
  58.3759320  55.9789410  50.6890780  58.6785220  55.9856840  49.7809930
  59.1153910  55.6287270  51.1858440  61.5944250  54.9224030  51.6746980
  61.2466250  54.2448020  51.0949430  61.7957020  54.4613540  52.4890370
  54.9349890  61.4511680  58.0711350  54.2798730  61.1823320  57.4271050
  55.7727840  61.3416160  57.6213330  67.8840330  56.2452970  52.2929840
  68.3025210  56.0583950  51.4526500  67.5776390  55.3932020  52.6032770
  54.1487970  58.6610610  54.0136680  53.2452050  58.9240810  53.8388340
  54.6328590  58.9321780  53.2336640  56.6915180  57.7176150  51.9231060
  57.4006880  57.2959370  51.4378340  55.9755120  57.7851380  51.2914410
  56.3389340  53.7715480  50.9633710  57.0617470  54.3124420  51.2814930
  56.6113860  53.4978900  50.0875250  56.0281530  53.0221670  60.8656330
  56.6757720  52.4719050  60.4251490  56.4483370  53.2764820  61.6872140
  55.7636180  53.8108740  54.5569280  56.5215540  53.9237620  53.9833310
  55.3013350  54.6477940  54.5112710  62.3049990  55.9248010  57.5471590
  61.4924500  55.5504900  57.2067470  62.8091630  55.1693090  57.8492780
  66.8074970  52.5890460  58.7854660  67.4104340  53.1610670  59.2603180
  66.0667960  53.1529900  58.5628560  58.1361330  54.3372790  53.0971250
  58.6654090  53.5502590  52.9679200  58.7689650  55.0163980  53.3306780
  60.3299170  54.0747930  56.1516640  59.7001910  53.3735240  56.3186770
  59.7904310  54.8352060  55.9349800  65.9628340  60.7877960  39.5284340
  65.8822390  59.8732570  39.2576050  65.5492760  61.2845030  38.8224050
  64.0946380  62.5656980  41.4093610  63.3188480  62.0857420  41.6992180
  64.7459310  61.8862630  41.2349770  58.1112210  62.8776790  42.2869370
  57.2797090  62.6225500  42.6865880  58.7193190  62.9487560  43.0227290
  56.5204160  57.8378680  36.0711760  55.6320860  58.1794650  35.9691640
  56.8045350  57.6379000  35.1792590  54.4837170  60.4384330  41.9551460
  55.0553280  59.6706530  41.9555100  54.4838710  60.7373090  41.0458070
  55.7262040  55.8468690  43.7420390  55.5464880  54.9494440  44.0223150
  55.3242120  56.3940560  44.4167340  64.5660540  58.0484550  41.6432700
  64.9425360  57.1756430  41.5306370  64.4680050  58.3843250  40.7523140
  58.6965550  56.4210180  37.1050140  58.8032300  57.3213910  37.4118900
  57.7857910  56.3728150  36.8144790  56.3448710  58.3429190  42.3502730
  57.0258820  58.6067560  42.9690130  56.0296760  57.5030060  42.6840740
  60.5373280  59.3896550  41.4375320  61.0451500  59.8877520  42.0780340
  61.0686520  58.6131750  41.2614680  58.8209380  54.0295110  45.7038740
  58.8227820  54.5467500  44.8984640  57.9913690  53.5525290  45.6808670
  65.2080470  64.1414420  37.2028640  64.5897740  64.6063870  36.6391360
  65.7203720  64.8341900  37.6198150  60.0712230  63.6690290  43.8812240
  59.7381610  64.2959210  44.5233310  60.2478910  64.1952170  43.1013910
  58.5024710  55.7405070  43.7109190  58.8441520  56.5847120  43.4163060
  57.5640520  55.8888810  43.8274530  62.1852600  53.2287340  40.0353780
  62.4927580  52.6734230  39.3189280  61.2553300  53.3631800  39.8526770
  67.1353100  63.8484470  43.6543850  67.5521890  63.6344580  42.8197310
  67.8592920  64.1057260  44.2252470  64.5733360  61.2936170  36.7713900
  63.6462640  61.2273550  37.0002370  64.7258180  62.2316300  36.6569140
  64.5602440  57.5653170  33.7681060  63.6206110  57.7267130  33.8533520
  64.8785700  58.2838850  33.2217050  68.6030650  62.8556470  37.2749150
  67.9843070  62.5176020  36.6275450  68.5855100  62.2116230  37.9828340
  68.0457210  59.0341010  44.6914960  67.6328390  59.8594720  44.9454950
  67.3133160  58.4486050  44.4991320  60.1790000  61.8200910  39.5533630
  59.7747000  61.1078160  39.0579530  60.2653120  61.4754150  40.4421670
  58.8918620  58.5944120  43.3332670  59.4433210  58.7039460  42.5585920
  59.4062130  58.9681720  44.0487900  66.7795350  62.0943280  34.2821900
  67.2188630  61.2565710  34.1359720  67.4923770  62.7272680  34.3686040
  58.5661350  62.1163480  46.9438010  58.4269120  62.9886280  47.3125410
  57.6842710  61.7736290  46.7985950  56.8794630  60.7145890  37.0540280
  56.7592230  61.4407980  36.4421550  56.5695520  59.9448800  36.5768190
  54.5180000  63.8861030  42.8608920  54.5960420  64.0209800  41.9164640
  55.1321680  63.1776920  43.0537040  54.5739520  64.9275200  45.4003380
  54.7370560  64.4580560  44.5822750  55.0391970  64.4198760  46.0652220
  59.3458290  54.0580960  40.4363950  58.9026440  54.8390500  40.1048470
  59.9043280  54.3810850  41.1434890  63.6328100  56.9249480  46.0399270
  63.1707470  57.1332500  46.8519210  63.2306210  56.1108830  45.7369940
  68.6332610  58.1458430  47.1695930  67.7826200  57.8464180  47.4905000
  68.4734400  58.3900440  46.2579750  65.7282320  59.6460180  49.2694720
  66.0535730  58.8123930  48.9296950  66.5162650  60.1688700  49.4173050
  62.4617110  53.6791660  35.3169780  61.8371290  53.6751530  36.0423090
  62.3747230  52.8122620  34.9205750  61.3834190  54.6028290  42.2953550
  61.6806520  55.5091120  42.2145570  61.9319750  54.1147070  41.6813120
  59.1372510  59.1814530  38.1645200  58.9113430  58.9651700  39.0691820
  58.3565040  59.6142990  37.8191170  66.3670270  59.1877900  36.7635850
  65.7679160  59.9113700  36.5799470  66.9149880  59.1254680  35.9812300
  61.5771720  60.0800110  48.8305470  61.4815320  59.1394840  48.6805870
  62.4203700  60.3015180  48.4353540  64.9735140  57.8241440  38.7939130
  65.3664710  58.1413640  37.9807820  65.3351990  56.9453320  38.9083650
  56.7082260  56.4913780  46.9839250  56.3145650  57.3388990  47.1912030
  56.0200660  55.8540150  47.1747890  63.2827310  56.5748750  50.0535990
  62.5925630  56.3820950  50.6882080  64.0259610  56.8583390  50.5860290
  54.0099310  54.4142240  41.0169330  53.7212360  54.9845100  41.7294310
  54.7545070  53.9346690  41.3800560  54.1969540  58.3562360  32.2272050
  54.1144210  59.2993120  32.3687040  53.8452600  58.2137270  31.3484400
  65.5590280  60.4147190  42.8889910  64.8271400  60.9234000  43.2380010
  65.1614620  59.5977170  42.5878690  61.9967670  57.0901390  41.2942400
  62.0003730  56.6491340  40.4446940  62.8918790  57.4118720  41.4014220
  57.8470050  56.9727880  40.2536610  57.5070100  57.4503110  41.0103660
  57.0847370  56.5193000  39.8937710  62.0587820  58.0913470  34.2849160
  62.1800640  58.0499950  35.2334980  61.6736330  58.9537620  34.1295890
  66.0216190  55.8680870  42.3012850  66.0388930  56.3189520  43.1454700
  65.7731770  54.9686510  42.5146290  61.0709320  60.4014610  33.6832460
  60.5026220  59.9532860  33.0568370  61.7798320  60.7607390  33.1497610
  56.1478500  64.3026630  47.5599190  55.7633290  63.6620300  48.1582150
  56.4590690  65.0062750  48.1293920  62.2975640  61.1503170  43.0407810
  62.6645770  60.6761740  43.7869150  62.1080700  62.0244740  43.3816150
  55.1616130  55.8946860  39.1701280  54.8763050  55.5302530  40.0079900
  55.0994990  55.1627320  38.5564420  60.0875010  60.1911810  45.3592020
  59.7832080  61.0703790  45.5842380  61.0421470  60.2511600  45.3949460
  58.6156800  64.3972800  35.9558870  57.8419060  63.8570420  35.7957590
  59.3451430  63.8779410  35.6176630  64.8354720  54.7876120  35.8914650
  64.0219330  54.2889290  35.8159960  64.6416670  55.6274370  35.4751000
  64.7563580  63.4647220  47.6354260  64.6900890  62.5442890  47.3811850
  64.1268720  63.5622660  48.3498900  67.5503110  59.1595770  34.1876810
  68.4382730  59.4713000  34.0128150  67.5208200  58.2868020  33.7957390
  58.6594200  64.0653180  39.5937680  59.1772870  63.2621440  39.5394570
  58.2078220  64.0032320  40.4354510  56.1438740  61.0314550  46.5063380
  55.7853680  61.6968400  47.0936720  55.8493300  60.1998100  46.8776000
  59.3451860  61.4898790  49.3902930  59.0452000  61.6355970  48.4930750
  60.1163100  60.9304080  49.2976320  66.4291110  64.6535300  40.2310490
  66.7814930  64.0563430  39.5711860  65.5453440  64.3279530  40.4018740
  54.6546790  61.0305810  33.1297980  55.5241640  61.3130610  33.4133900
  54.1637110  61.8441680  33.0146790  61.8181600  62.4179020  37.2506260
  62.2744380  63.2284270  37.4766450  61.4669810  62.1002160  38.0824750
  57.7193380  52.7616670  37.7228780  57.5908010  52.7534570  38.6713700
  56.8955400  53.0999760  37.3719790  54.7187310  54.5207790  47.1835480
  54.0045830  54.7204710  47.7888090  55.1382350  53.7447360  47.5550280
  56.6393300  62.8479280  35.2580040  56.0321250  63.5878180  35.2675340
  57.1142650  62.9378640  34.4318240  66.2126090  57.0130100  44.9336930
  66.5806910  56.1925310  45.2616500  65.3524290  57.0731990  45.3492580
  61.5472150  58.2472990  37.1582370  60.8388300  58.7159330  37.5995980
  61.8316630  57.5895000  37.7927560  63.1728080  59.6669690  45.1574900
  63.6713330  60.1415510  45.8226750  63.3151030  58.7433210  45.3644930
  65.5787580  54.9723650  38.5978160  65.4555360  54.9909780  37.6487670
  66.5272140  55.0202590  38.7176560  59.7507170  56.5558070  34.5333080
  60.5997700  56.9928220  34.4673270  59.3838440  56.8678330  35.3605140
  58.6498590  62.8090430  33.0068610  59.4161860  62.6971790  33.5694040
  58.7273280  62.1128400  32.3545380  57.3445350  60.2415500  33.6901500
  57.4248940  59.2943010  33.8018900  58.2365100  60.5722380  33.7962160
  54.8716150  62.0630420  48.9257670  55.3755170  61.4837700  49.4973900
  54.1323570  62.3470650  49.4634040  61.7739770  64.7844610  32.4803960
  61.6690410  64.1696960  33.2065340  61.6063990  64.2610500  31.6966970
  61.9254090  63.4701410  48.4593190  61.1599760  64.0386410  48.3747860
  62.1070050  63.1777620  47.5661420  65.0142500  63.8464640  33.0845950
  64.4652600  64.2933940  33.7288690  65.6361760  63.3413890  33.6083620
  56.9039230  60.2060010  49.8207740  56.9444570  59.9073880  50.7292970
  57.7584730  60.6067620  49.6615260  60.6817620  62.8055560  34.9811250
  61.1034040  62.6395430  35.8242640  60.8068460  61.9955790  34.4866390
  58.8445040  58.7852110  47.7882230  58.3141500  58.2943060  47.1605570
  59.5133110  59.2136310  47.2540160  63.1945260  61.8293170  32.2288350
  63.7150920  61.1142190  31.8629500  63.8413660  62.4679040  32.5288860
  67.7423100  63.2521570  47.5523420  68.1564120  63.4066650  48.4013840
  66.8074100  63.3776790  47.7149200  68.2145270  60.5917730  49.5562570
  68.7966040  59.8370050  49.4683050  68.3907040  61.1225170  48.7794050
  59.3317340  55.7514480  47.8679520  59.2374210  55.1335230  47.1430390
  58.7514730  56.4780770  47.6409430  62.0978780  54.3087720  44.9006910
  61.6496080  54.3311980  44.0552460  61.4643980  53.9106740  45.4977210
  62.5038330  63.2042050  45.5219350  62.9226440  64.0474780  45.3495590
  61.5846960  63.3414090  45.2926130  64.8402230  60.9358230  46.9057190
  64.9598440  60.3399370  47.6452030  65.6996230  60.9727920  46.4858490
  67.1790130  61.4895420  45.4819700  66.6525350  62.0138040  44.8784840
  67.5221470  62.1222810  46.1129430  59.5776520  58.8788790  31.9269410
  59.3765580  58.0156150  32.2882750  59.4068570  58.7922150  30.9891010
  61.6071000  57.4779580  48.1633010  62.1970690  57.1695430  48.8510830
  60.7891240  57.0059330  48.3192910  66.4264430  57.0945390  48.3966030
  65.7379950  56.4326930  48.3316020  67.1470450  56.6483660  48.8414490
  67.0564830  53.6897020  34.4556290  67.3367120  52.8464920  34.8115710
  66.2830560  53.9220130  34.9695040  58.3759320  55.9789410  31.9147290
  58.6785220  55.9856840  31.0066440  59.1153910  55.6287270  32.4114950
  61.5944250  54.9224030  32.9003490  61.2466250  54.2448020  32.3205940
  61.7957020  54.4613540  33.7146880  54.9349890  61.4511680  39.2967860
  54.2798730  61.1823320  38.6527560  55.7727840  61.3416160  38.8469840
  67.8840330  56.2452970  33.5186350  68.3025210  56.0583950  32.6783010
  67.5776390  55.3932020  33.8289280  55.9725820  61.8364250  43.8371200
  56.3398860  61.7491650  44.7167220  55.4036640  61.0730800  43.7378060
  55.5241820  58.7473340  47.7429620  54.6297870  58.7140100  48.0823330
  56.0639370  58.9460130  48.5080870  54.1487970  58.6610610  35.2393190
  53.2452050  58.9240810  35.0644850  54.6328590  58.9321780  34.4593150
  56.6915180  57.7176150  33.1487570  57.4006880  57.2959370  32.6634850
  55.9755120  57.7851380  32.5170920  56.3389340  53.7715480  32.1890220
  57.0617470  54.3124420  32.5071440  56.6113860  53.4978900  31.3131760
  56.0281530  53.0221670  42.0912840  56.6757720  52.4719050  41.6508000
  56.4483370  53.2764820  42.9128650  55.7813530  53.1777340  44.8338160
  55.4328350  53.6341160  45.5996340  55.4501230  52.2834470  44.9160590
  63.2938350  54.3689220  48.3557580  63.2327240  54.9611050  49.1052990
  64.2338730  54.2615180  48.2107840  65.9312910  54.0259280  47.9949870
  66.5453320  54.3438570  47.3330950  66.4762470  53.5407870  48.6145730
  56.4534170  52.7053540  48.1088930  57.0017160  52.5241590  47.3455040
  56.5189480  51.9147650  48.6445240  66.6720950  52.5891420  44.3219160
  65.7980790  52.9226530  44.1192090  66.5631700  52.1164600  45.1471030
  67.5792930  54.7962290  45.7060880  67.2506290  53.9814050  45.3262610
  68.5275230  54.7532100  45.5826570  64.4195770  53.5061260  43.2612070
  63.6367560  53.9806760  43.5408830  64.1258700  52.6016090  43.1525250
  55.7636180  53.8108740  35.7825790  56.5215540  53.9237620  35.2089820
  55.3013350  54.6477940  35.7369220  62.3049990  55.9248010  38.7728100
  61.4924500  55.5504900  38.4323980  62.8091630  55.1693090  39.0749290
  66.8074970  52.5890460  40.0111170  67.4104340  53.1610670  40.4859690
  66.0667960  53.1529900  39.7885070  58.1361330  54.3372790  34.3227760
  58.6654090  53.5502590  34.1935710  58.7689650  55.0163980  34.5563290
  60.3299170  54.0747930  37.3773150  59.7001910  53.3735240  37.5443280
  59.7904310  54.8352060  37.1606310  60.4554730  53.3531910  49.8125640
  60.1739000  53.8565510  49.0486460  60.8374430  52.5553660  49.4467770
  67.0570190  52.7685490  50.3906110  66.9435640  53.0880100  51.2857630
  67.8739930  53.1698000  50.0943390  65.9628340  60.7877960  20.7540850
  65.8822390  59.8732570  20.4832560  65.5492760  61.2845030  20.0480560
  64.0946380  62.5656980  22.6350120  63.3188480  62.0857420  22.9248690
  64.7459310  61.8862630  22.4606280  58.1112210  62.8776790  23.5125880
  57.2797090  62.6225500  23.9122390  58.7193190  62.9487560  24.2483800
  56.5204160  57.8378680  17.2968270  55.6320860  58.1794650  17.1948150
  56.8045350  57.6379000  16.4049100  54.4837170  60.4384330  23.1807970
  55.0553280  59.6706530  23.1811610  54.4838710  60.7373090  22.2714580
  55.7262040  55.8468690  24.9676900  55.5464880  54.9494440  25.2479660
  55.3242120  56.3940560  25.6423850  64.5660540  58.0484550  22.8689210
  64.9425360  57.1756430  22.7562880  64.4680050  58.3843250  21.9779650
  58.6965550  56.4210180  18.3306650  58.8032300  57.3213910  18.6375410
  57.7857910  56.3728150  18.0401300  56.3448710  58.3429190  23.5759240
  57.0258820  58.6067560  24.1946640  56.0296760  57.5030060  23.9097250
  60.5373280  59.3896550  22.6631830  61.0451500  59.8877520  23.3036850
  61.0686520  58.6131750  22.4871190  58.8209380  54.0295110  26.9295250
  58.8227820  54.5467500  26.1241150  57.9913690  53.5525290  26.9065180
  65.2080470  64.1414420  18.4285150  64.5897740  64.6063870  17.8647870
  65.7203720  64.8341900  18.8454660  60.0712230  63.6690290  25.1068750
  59.7381610  64.2959210  25.7489820  60.2478910  64.1952170  24.3270420
  58.5024710  55.7405070  24.9365700  58.8441520  56.5847120  24.6419570
  57.5640520  55.8888810  25.0531040  62.1852600  53.2287340  21.2610290
  62.4927580  52.6734230  20.5445790  61.2553300  53.3631800  21.0783280
  67.1353100  63.8484470  24.8800360  67.5521890  63.6344580  24.0453820
  67.8592920  64.1057260  25.4508980  64.5733360  61.2936170  17.9970410
  63.6462640  61.2273550  18.2258880  64.7258180  62.2316300  17.8825650
  64.5602440  57.5653170  14.9937570  63.6206110  57.7267130  15.0790030
  64.8785700  58.2838850  14.4473560  68.6030650  62.8556470  18.5005660
  67.9843070  62.5176020  17.8531960  68.5855100  62.2116230  19.2084850
  68.0457210  59.0341010  25.9171470  67.6328390  59.8594720  26.1711460
  67.3133160  58.4486050  25.7247830  60.1790000  61.8200910  20.7790140
  59.7747000  61.1078160  20.2836040  60.2653120  61.4754150  21.6678180
  58.8918620  58.5944120  24.5589180  59.4433210  58.7039460  23.7842430
  59.4062130  58.9681720  25.2744410  66.7795350  62.0943280  15.5078410
  67.2188630  61.2565710  15.3616230  67.4923770  62.7272680  15.5942550
  58.5661350  62.1163480  28.1694520  58.4269120  62.9886280  28.5381920
  57.6842710  61.7736290  28.0242460  56.8794630  60.7145890  18.2796790
  56.7592230  61.4407980  17.6678060  56.5695520  59.9448800  17.8024700
  54.5180000  63.8861030  24.0865430  54.5960420  64.0209800  23.1421150
  55.1321680  63.1776920  24.2793550  54.5739520  64.9275200  26.6259890
  54.7370560  64.4580560  25.8079260  55.0391970  64.4198760  27.2908730
  59.3458290  54.0580960  21.6620460  58.9026440  54.8390500  21.3304980
  59.9043280  54.3810850  22.3691400  63.6328100  56.9249480  27.2655780
  63.1707470  57.1332500  28.0775720  63.2306210  56.1108830  26.9626450
  68.6332610  58.1458430  28.3952440  67.7826200  57.8464180  28.7161510
  68.4734400  58.3900440  27.4836260  65.7282320  59.6460180  30.4951230
  66.0535730  58.8123930  30.1553460  66.5162650  60.1688700  30.6429560
  62.4617110  53.6791660  16.5426290  61.8371290  53.6751530  17.2679600
  62.3747230  52.8122620  16.1462260  61.3834190  54.6028290  23.5210060
  61.6806520  55.5091120  23.4402080  61.9319750  54.1147070  22.9069630
  59.1372510  59.1814530  19.3901710  58.9113430  58.9651700  20.2948330
  58.3565040  59.6142990  19.0447680  66.3670270  59.1877900  17.9892360
  65.7679160  59.9113700  17.8055980  66.9149880  59.1254680  17.2068810
  61.5771720  60.0800110  30.0561980  61.4815320  59.1394840  29.9062380
  62.4203700  60.3015180  29.6610050  64.9735140  57.8241440  20.0195640
  65.3664710  58.1413640  19.2064330  65.3351990  56.9453320  20.1340160
  56.7082260  56.4913780  28.2095760  56.3145650  57.3388990  28.4168540
  56.0200660  55.8540150  28.4004400  63.2827310  56.5748750  31.2792500
  62.5925630  56.3820950  31.9138590  64.0259610  56.8583390  31.8116800
  54.0099310  54.4142240  22.2425840  53.7212360  54.9845100  22.9550820
  54.7545070  53.9346690  22.6057070  54.1969540  58.3562360  13.4528560
  54.1144210  59.2993120  13.5943550  53.8452600  58.2137270  12.5740910
  65.5590280  60.4147190  24.1146420  64.8271400  60.9234000  24.4636520
  65.1614620  59.5977170  23.8135200  61.9967670  57.0901390  22.5198910
  62.0003730  56.6491340  21.6703450  62.8918790  57.4118720  22.6270730
  57.8470050  56.9727880  21.4793120  57.5070100  57.4503110  22.2360170
  57.0847370  56.5193000  21.1194220  62.0587820  58.0913470  15.5105670
  62.1800640  58.0499950  16.4591490  61.6736330  58.9537620  15.3552400
  66.0216190  55.8680870  23.5269360  66.0388930  56.3189520  24.3711210
  65.7731770  54.9686510  23.7402800  61.0709320  60.4014610  14.9088970
  60.5026220  59.9532860  14.2824880  61.7798320  60.7607390  14.3754120
  56.1478500  64.3026630  28.7855700  55.7633290  63.6620300  29.3838660
  56.4590690  65.0062750  29.3550430  62.2975640  61.1503170  24.2664320
  62.6645770  60.6761740  25.0125660  62.1080700  62.0244740  24.6072660
  55.1616130  55.8946860  20.3957790  54.8763050  55.5302530  21.2336410
  55.0994990  55.1627320  19.7820930  60.0875010  60.1911810  26.5848530
  59.7832080  61.0703790  26.8098890  61.0421470  60.2511600  26.6205970
  58.6156800  64.3972800  17.1815380  57.8419060  63.8570420  17.0214100
  59.3451430  63.8779410  16.8433140  64.8354720  54.7876120  17.1171160
  64.0219330  54.2889290  17.0416470  64.6416670  55.6274370  16.7007510
  64.7563580  63.4647220  28.8610770  64.6900890  62.5442890  28.6068360
  64.1268720  63.5622660  29.5755410  67.5503110  59.1595770  15.4133320
  68.4382730  59.4713000  15.2384660  67.5208200  58.2868020  15.0213900
  58.6594200  64.0653180  20.8194190  59.1772870  63.2621440  20.7651080
  58.2078220  64.0032320  21.6611020  56.1438740  61.0314550  27.7319890
  55.7853680  61.6968400  28.3193230  55.8493300  60.1998100  28.1032510
  59.3451860  61.4898790  30.6159440  59.0452000  61.6355970  29.7187260
  60.1163100  60.9304080  30.5232830  66.4291110  64.6535300  21.4567000
  66.7814930  64.0563430  20.7968370  65.5453440  64.3279530  21.6275250
  54.6546790  61.0305810  14.3554490  55.5241640  61.3130610  14.6390410
  54.1637110  61.8441680  14.2403300  61.8181600  62.4179020  18.4762770
  62.2744380  63.2284270  18.7022960  61.4669810  62.1002160  19.3081260
  57.7193380  52.7616670  18.9485290  57.5908010  52.7534570  19.8970210
  56.8955400  53.0999760  18.5976300  54.7187310  54.5207790  28.4091990
  54.0045830  54.7204710  29.0144600  55.1382350  53.7447360  28.7806790
  56.6393300  62.8479280  16.4836550  56.0321250  63.5878180  16.4931850
  57.1142650  62.9378640  15.6574750  66.2126090  57.0130100  26.1593440
  66.5806910  56.1925310  26.4873010  65.3524290  57.0731990  26.5749090
  61.5472150  58.2472990  18.3838880  60.8388300  58.7159330  18.8252490
  61.8316630  57.5895000  19.0184070  63.1728080  59.6669690  26.3831410
  63.6713330  60.1415510  27.0483260  63.3151030  58.7433210  26.5901440
  65.5787580  54.9723650  19.8234670  65.4555360  54.9909780  18.8744180
  66.5272140  55.0202590  19.9433070  59.7507170  56.5558070  15.7589590
  60.5997700  56.9928220  15.6929780  59.3838440  56.8678330  16.5861650
  58.6498590  62.8090430  14.2325120  59.4161860  62.6971790  14.7950550
  58.7273280  62.1128400  13.5801890  57.3445350  60.2415500  14.9158010
  57.4248940  59.2943010  15.0275410  58.2365100  60.5722380  15.0218670
  54.8716150  62.0630420  30.1514180  55.3755170  61.4837700  30.7230410
  54.1323570  62.3470650  30.6890550  61.7739770  64.7844610  13.7060470
  61.6690410  64.1696960  14.4321850  61.6063990  64.2610500  12.9223480
  61.9254090  63.4701410  29.6849700  61.1599760  64.0386410  29.6004370
  62.1070050  63.1777620  28.7917930  65.0142500  63.8464640  14.3102460
  64.4652600  64.2933940  14.9545200  65.6361760  63.3413890  14.8340130
  56.9039230  60.2060010  31.0464250  56.9444570  59.9073880  31.9549480
  57.7584730  60.6067620  30.8871770  60.6817620  62.8055560  16.2067760
  61.1034040  62.6395430  17.0499150  60.8068460  61.9955790  15.7122900
  58.8445040  58.7852110  29.0138740  58.3141500  58.2943060  28.3862080
  59.5133110  59.2136310  28.4796670  63.1945260  61.8293170  13.4544860
  63.7150920  61.1142190  13.0886010  63.8413660  62.4679040  13.7545370
  67.7423100  63.2521570  28.7779930  68.1564120  63.4066650  29.6270350
  66.8074100  63.3776790  28.9405710  68.2145270  60.5917730  30.7819080
  68.7966040  59.8370050  30.6939560  68.3907040  61.1225170  30.0050560
  59.3317340  55.7514480  29.0936030  59.2374210  55.1335230  28.3686900
  58.7514730  56.4780770  28.8665940  62.0978780  54.3087720  26.1263420
  61.6496080  54.3311980  25.2808970  61.4643980  53.9106740  26.7233720
  62.5038330  63.2042050  26.7475860  62.9226440  64.0474780  26.5752100
  61.5846960  63.3414090  26.5182640  64.8402230  60.9358230  28.1313700
  64.9598440  60.3399370  28.8708540  65.6996230  60.9727920  27.7115000
  67.1790130  61.4895420  26.7076210  66.6525350  62.0138040  26.1041350
  67.5221470  62.1222810  27.3385940  59.5776520  58.8788790  13.1525920
  59.3765580  58.0156150  13.5139260  59.4068570  58.7922150  12.2147520
  61.6071000  57.4779580  29.3889520  62.1970690  57.1695430  30.0767340
  60.7891240  57.0059330  29.5449420  66.4264430  57.0945390  29.6222540
  65.7379950  56.4326930  29.5572530  67.1470450  56.6483660  30.0671000
  67.0564830  53.6897020  15.6812800  67.3367120  52.8464920  16.0372220
  66.2830560  53.9220130  16.1951550  58.3759320  55.9789410  13.1403800
  58.6785220  55.9856840  12.2322950  59.1153910  55.6287270  13.6371460
  61.5944250  54.9224030  14.1260000  61.2466250  54.2448020  13.5462450
  61.7957020  54.4613540  14.9403390  54.9349890  61.4511680  20.5224370
  54.2798730  61.1823320  19.8784070  55.7727840  61.3416160  20.0726350
  67.8840330  56.2452970  14.7442860  68.3025210  56.0583950  13.9039520
  67.5776390  55.3932020  15.0545790  55.9725820  61.8364250  25.0627710
  56.3398860  61.7491650  25.9423730  55.4036640  61.0730800  24.9634570
  55.5241820  58.7473340  28.9686130  54.6297870  58.7140100  29.3079840
  56.0639370  58.9460130  29.7337380  54.1487970  58.6610610  16.4649700
  53.2452050  58.9240810  16.2901360  54.6328590  58.9321780  15.6849660
  56.6915180  57.7176150  14.3744080  57.4006880  57.2959370  13.8891360
  55.9755120  57.7851380  13.7427430  56.3389340  53.7715480  13.4146730
  57.0617470  54.3124420  13.7327950  56.6113860  53.4978900  12.5388270
  56.0281530  53.0221670  23.3169350  56.6757720  52.4719050  22.8764510
  56.4483370  53.2764820  24.1385160  55.7813530  53.1777340  26.0594670
  55.4328350  53.6341160  26.8252850  55.4501230  52.2834470  26.1417100
  63.2938350  54.3689220  29.5814090  63.2327240  54.9611050  30.3309500
  64.2338730  54.2615180  29.4364350  65.9312910  54.0259280  29.2206380
  66.5453320  54.3438570  28.5587460  66.4762470  53.5407870  29.8402240
  56.4534170  52.7053540  29.3345440  57.0017160  52.5241590  28.5711550
  56.5189480  51.9147650  29.8701750  66.6720950  52.5891420  25.5475670
  65.7980790  52.9226530  25.3448600  66.5631700  52.1164600  26.3727540
  67.5792930  54.7962290  26.9317390  67.2506290  53.9814050  26.5519120
  68.5275230  54.7532100  26.8083080  64.4195770  53.5061260  24.4868580
  63.6367560  53.9806760  24.7665340  64.1258700  52.6016090  24.3781760
  55.7636180  53.8108740  17.0082300  56.5215540  53.9237620  16.4346330
  55.3013350  54.6477940  16.9625730  62.3049990  55.9248010  19.9984610
  61.4924500  55.5504900  19.6580490  62.8091630  55.1693090  20.3005800
  66.8074970  52.5890460  21.2367680  67.4104340  53.1610670  21.7116200
  66.0667960  53.1529900  21.0141580  58.1361330  54.3372790  15.5484270
  58.6654090  53.5502590  15.4192220  58.7689650  55.0163980  15.7819800
  60.3299170  54.0747930  18.6029660  59.7001910  53.3735240  18.7699790
  59.7904310  54.8352060  18.3862820  60.4554730  53.3531910  31.0382150
  60.1739000  53.8565510  30.2742970  60.8374430  52.5553660  30.6724280
  67.0570190  52.7685490  31.6162620  66.9435640  53.0880100  32.5114140
  67.8739930  53.1698000  31.3199900  64.0946380  62.5656980   3.8606630
  63.3188480  62.0857420   4.1505200  64.7459310  61.8862630   3.6862790
  58.1112210  62.8776790   4.7382390  57.2797090  62.6225500   5.1378900
  58.7193190  62.9487560   5.4740310  54.4837170  60.4384330   4.4064480
  55.0553280  59.6706530   4.4068120  54.4838710  60.7373090   3.4971090
  55.7262040  55.8468690   6.1933410  55.5464880  54.9494440   6.4736170
  55.3242120  56.3940560   6.8680360  64.5660540  58.0484550   4.0945720
  64.9425360  57.1756430   3.9819390  64.4680050  58.3843250   3.2036160
  56.3448710  58.3429190   4.8015750  57.0258820  58.6067560   5.4203150
  56.0296760  57.5030060   5.1353760  60.5373280  59.3896550   3.8888340
  61.0451500  59.8877520   4.5293360  61.0686520  58.6131750   3.7127700
  58.8209380  54.0295110   8.1551760  58.8227820  54.5467500   7.3497660
  57.9913690  53.5525290   8.1321690  60.0712230  63.6690290   6.3325260
  59.7381610  64.2959210   6.9746330  60.2478910  64.1952170   5.5526930
  58.5024710  55.7405070   6.1622210  58.8441520  56.5847120   5.8676080
  57.5640520  55.8888810   6.2787550  62.1852600  53.2287340   2.4866800
  62.4927580  52.6734230   1.7702300  61.2553300  53.3631800   2.3039790
  67.1353100  63.8484470   6.1056870  67.5521890  63.6344580   5.2710330
  67.8592920  64.1057260   6.6765490  68.0457210  59.0341010   7.1427980
  67.6328390  59.8594720   7.3967970  67.3133160  58.4486050   6.9504340
  58.8918620  58.5944120   5.7845690  59.4433210  58.7039460   5.0098940
  59.4062130  58.9681720   6.5000920  58.5661350  62.1163480   9.3951030
  58.4269120  62.9886280   9.7638430  57.6842710  61.7736290   9.2498970
  54.5180000  63.8861030   5.3121940  54.5960420  64.0209800   4.3677660
  55.1321680  63.1776920   5.5050060  54.5739520  64.9275200   7.8516400
  54.7370560  64.4580560   7.0335770  55.0391970  64.4198760   8.5165240
  59.3458290  54.0580960   2.8876970  58.9026440  54.8390500   2.5561490
  59.9043280  54.3810850   3.5947910  63.6328100  56.9249480   8.4912290
  63.1707470  57.1332500   9.3032230  63.2306210  56.1108830   8.1882960
  68.6332610  58.1458430   9.6208950  67.7826200  57.8464180   9.9418020
  68.4734400  58.3900440   8.7092770  65.7282320  59.6460180  11.7207740
  66.0535730  58.8123930  11.3809970  66.5162650  60.1688700  11.8686070
  61.3834190  54.6028290   4.7466570  61.6806520  55.5091120   4.6658590
  61.9319750  54.1147070   4.1326140  61.5771720  60.0800110  11.2818490
  61.4815320  59.1394840  11.1318890  62.4203700  60.3015180  10.8866560
  56.7082260  56.4913780   9.4352270  56.3145650  57.3388990   9.6425050
  56.0200660  55.8540150   9.6260910  63.2827310  56.5748750  12.5049010
  62.5925630  56.3820950  13.1395100  64.0259610  56.8583390  13.0373310
  54.0099310  54.4142240   3.4682350  53.7212360  54.9845100   4.1807330
  54.7545070  53.9346690   3.8313580  65.5590280  60.4147190   5.3402930
  64.8271400  60.9234000   5.6893030  65.1614620  59.5977170   5.0391710
  61.9967670  57.0901390   3.7455420  62.0003730  56.6491340   2.8959960
  62.8918790  57.4118720   3.8527240  57.8470050  56.9727880   2.7049630
  57.5070100  57.4503110   3.4616680  57.0847370  56.5193000   2.3450730
  66.0216190  55.8680870   4.7525870  66.0388930  56.3189520   5.5967720
  65.7731770  54.9686510   4.9659310  56.1478500  64.3026630  10.0112210
  55.7633290  63.6620300  10.6095170  56.4590690  65.0062750  10.5806940
  62.2975640  61.1503170   5.4920830  62.6645770  60.6761740   6.2382170
  62.1080700  62.0244740   5.8329170  60.0875010  60.1911810   7.8105040
  59.7832080  61.0703790   8.0355400  61.0421470  60.2511600   7.8462480
  64.7563580  63.4647220  10.0867280  64.6900890  62.5442890   9.8324870
  64.1268720  63.5622660  10.8011920  58.6594200  64.0653180   2.0450700
  59.1772870  63.2621440   1.9907590  58.2078220  64.0032320   2.8867530
  56.1438740  61.0314550   8.9576400  55.7853680  61.6968400   9.5449740
  55.8493300  60.1998100   9.3289020  59.3451860  61.4898790  11.8415950
  59.0452000  61.6355970  10.9443770  60.1163100  60.9304080  11.7489340
  66.4291110  64.6535300   2.6823510  66.7814930  64.0563430   2.0224880
  65.5453440  64.3279530   2.8531760  54.7187310  54.5207790   9.6348500
  54.0045830  54.7204710  10.2401110  55.1382350  53.7447360  10.0063300
  66.2126090  57.0130100   7.3849950  66.5806910  56.1925310   7.7129520
  65.3524290  57.0731990   7.8005600  63.1728080  59.6669690   7.6087920
  63.6713330  60.1415510   8.2739770  63.3151030  58.7433210   7.8157950
  54.8716150  62.0630420  11.3770690  55.3755170  61.4837700  11.9486920
  54.1323570  62.3470650  11.9147060  61.9254090  63.4701410  10.9106210
  61.1599760  64.0386410  10.8260880  62.1070050  63.1777620  10.0174440
  56.9039230  60.2060010  12.2720760  56.9444570  59.9073880  13.1805990
  57.7584730  60.6067620  12.1128280  58.8445040  58.7852110  10.2395250
  58.3141500  58.2943060   9.6118590  59.5133110  59.2136310   9.7053180
  67.7423100  63.2521570  10.0036440  68.1564120  63.4066650  10.8526860
  66.8074100  63.3776790  10.1662220  68.2145270  60.5917730  12.0075590
  68.7966040  59.8370050  11.9196070  68.3907040  61.1225170  11.2307070
  59.3317340  55.7514480  10.3192540  59.2374210  55.1335230   9.5943410
  58.7514730  56.4780770  10.0922450  62.0978780  54.3087720   7.3519930
  61.6496080  54.3311980   6.5065480  61.4643980  53.9106740   7.9490230
  62.5038330  63.2042050   7.9732370  62.9226440  64.0474780   7.8008610
  61.5846960  63.3414090   7.7439150  64.8402230  60.9358230   9.3570210
  64.9598440  60.3399370  10.0965050  65.6996230  60.9727920   8.9371510
  67.1790130  61.4895420   7.9332720  66.6525350  62.0138040   7.3297860
  67.5221470  62.1222810   8.5642450  61.6071000  57.4779580  10.6146030
  62.1970690  57.1695430  11.3023850  60.7891240  57.0059330  10.7705930
  66.4264430  57.0945390  10.8479050  65.7379950  56.4326930  10.7829040
  67.1470450  56.6483660  11.2927510  55.9725820  61.8364250   6.2884220
  56.3398860  61.7491650   7.1680240  55.4036640  61.0730800   6.1891080
  55.5241820  58.7473340  10.1942640  54.6297870  58.7140100  10.5336350
  56.0639370  58.9460130  10.9593890  56.0281530  53.0221670   4.5425860
  56.6757720  52.4719050   4.1021020  56.4483370  53.2764820   5.3641670
  55.7813530  53.1777340   7.2851180  55.4328350  53.6341160   8.0509360
  55.4501230  52.2834470   7.3673610  63.2938350  54.3689220  10.8070600
  63.2327240  54.9611050  11.5566010  64.2338730  54.2615180  10.6620860
  65.9312910  54.0259280  10.4462890  66.5453320  54.3438570   9.7843970
  66.4762470  53.5407870  11.0658750  56.4534170  52.7053540  10.5601950
  57.0017160  52.5241590   9.7968060  56.5189480  51.9147650  11.0958260
  66.6720950  52.5891420   6.7732180  65.7980790  52.9226530   6.5705110
  66.5631700  52.1164600   7.5984050  67.5792930  54.7962290   8.1573900
  67.2506290  53.9814050   7.7775630  68.5275230  54.7532100   8.0339590
  64.4195770  53.5061260   5.7125090  63.6367560  53.9806760   5.9921850
  64.1258700  52.6016090   5.6038270  66.8074970  52.5890460   2.4624190
  67.4104340  53.1610670   2.9372710  66.0667960  53.1529900   2.2398090
  60.4554730  53.3531910  12.2638660  60.1739000  53.8565510  11.4999480
  60.8374430  52.5553660  11.8980790  67.0570190  52.7685490  12.8419130
  66.9435640  53.0880100  13.7370650  67.8739930  53.1698000  12.5456410
  65.9628340  42.0134470  58.3027830  65.8822390  41.0989080  58.0319540
  65.5492760  42.5101540  57.5967540  64.0946380  43.7913490  60.1837100
  63.3188480  43.3113930  60.4735670  64.7459310  43.1119140  60.0093260
  58.1112210  44.1033300  61.0612860  57.2797090  43.8482010  61.4609370
  58.7193190  44.1744070  61.7970780  58.0913470  48.1373390  61.2570880
  58.3941510  47.2471130  61.0781100  58.8357060  48.6943610  61.0293130
  56.5204160  39.0635190  54.8455250  55.6320860  39.4051160  54.7435130
  56.8045350  38.8635510  53.9536080  54.4837170  41.6640840  60.7294950
  55.0553280  40.8963040  60.7298590  54.4838710  41.9629600  59.8201560
  64.3417120  50.4831690  58.5840220  63.7228560  50.9389190  58.0134660
  65.1968900  50.6383150  58.1829920  63.5355370  46.4670680  60.1907260
  63.4663650  45.5260620  60.0296390  64.2975230  46.5572090  60.7629830
  64.5660540  39.2741060  60.4176190  64.9425360  38.4012940  60.3049860
  64.4680050  39.6099760  59.5266630  58.6965550  37.6466690  55.8793630
  58.8032300  38.5470420  56.1862390  57.7857910  37.5984660  55.5888280
  56.3448710  39.5685700  61.1246220  57.0258820  39.8324070  61.7433620
  56.0296760  38.7286570  61.4584230  60.5373280  40.6153060  60.2118810
  61.0451500  41.1134030  60.8523830  61.0686520  39.8388260  60.0358170
  65.2080470  45.3670930  55.9772130  64.5897740  45.8320380  55.4134850
  65.7203720  46.0598410  56.3941640  54.5763670  46.0527460  53.3511760
  54.1991650  46.5414560  52.6196660  54.8336740  46.7252740  53.9818290
  62.1852600  34.4543850  58.8097270  62.4927580  33.8990740  58.0932770
  61.2553300  34.5888310  58.6270260  67.7367660  50.1711140  61.1004730
  67.7494820  49.7673430  60.2326990  67.1842880  50.9458430  60.9966160
  64.5733360  42.5192680  55.5457390  63.6462640  42.4530060  55.7745860
  64.7258180  43.4572810  55.4312630  64.5602440  38.7909680  52.5424550
  63.6206110  38.9523640  52.6277010  64.8785700  39.5095360  51.9960540
  68.6030650  44.0812980  56.0492640  67.9843070  43.7432530  55.4018940
  68.5855100  43.4372740  56.7571830  60.1790000  43.0457420  58.3277120
  59.7747000  42.3334670  57.8323020  60.2653120  42.7010660  59.2165160
  60.6471700  46.7324980  60.4916330  60.3499990  46.1270450  59.8124110
  61.5971520  46.7702290  60.3805690  66.7795350  43.3199790  53.0565390
  67.2188630  42.4822220  52.9103210  67.4923770  43.9529190  53.1429530
  64.8890730  48.2595860  57.0246630  65.3286640  49.0020190  56.6102020
  64.8277620  48.5022430  57.9485590  56.8794630  41.9402400  55.8283770
  56.7592230  42.6664490  55.2165040  56.5695520  41.1705310  55.3511680
  54.5180000  45.1117540  61.6352410  54.5960420  45.2466310  60.6908130
  55.1321680  44.4033430  61.8280530  55.7627630  46.8117730  58.0458590
  55.3555710  46.9532320  57.1912190  56.6540640  46.5277890  57.8429800
  67.5560910  51.2464980  54.3809640  67.3962050  50.9567920  55.2791470
  67.3907620  50.4705110  53.8454870  60.0349290  51.0263510  56.1581260
  59.8591770  50.1099050  55.9449060  59.1805030  51.3850800  56.3979060
  67.2587040  48.7552540  52.9407640  66.5652200  48.7529830  52.2809920
  68.0009900  48.3311860  52.5101810  66.8236970  50.3815250  57.0156130
  67.2793920  49.6004630  57.3294750  67.1629490  51.0922070  57.5597310
  59.3458290  35.2837470  59.2107440  58.9026440  36.0647010  58.8791960
  59.9043280  35.6067360  59.9178380  62.4617110  34.9048170  54.0913270
  61.8371290  34.9008040  54.8166580  62.3747230  34.0379130  53.6949240
  61.3834190  35.8284800  61.0697040  61.6806520  36.7347630  60.9889060
  61.9319750  35.3403580  60.4556610  59.1372510  40.4071040  56.9388690
  58.9113430  40.1908210  57.8435310  58.3565040  40.8399500  56.5934660
  66.3670270  40.4134410  55.5379340  65.7679160  41.1370210  55.3542960
  66.9149880  40.3511190  54.7555790  64.9735140  39.0497950  57.5682620
  65.3664710  39.3670150  56.7551310  65.3351990  38.1709830  57.6827140
  54.0099310  35.6398750  59.7912820  53.7212360  36.2101610  60.5037800
  54.7545070  35.1603200  60.1544050  54.1969540  39.5818870  51.0015540
  54.1144210  40.5249630  51.1430530  53.8452600  39.4393780  50.1227890
  61.9967670  38.3157900  60.0685890  62.0003730  37.8747850  59.2190430
  62.8918790  38.6375230  60.1757710  57.8470050  38.1984390  59.0280100
  57.5070100  38.6759620  59.7847150  57.0847370  37.7449510  58.6681200
  62.0587820  39.3169980  53.0592650  62.1800640  39.2756460  54.0078470
  61.6736330  40.1794130  52.9039380  66.0216190  37.0937380  61.0756340
  66.0388930  37.5446030  61.9198190  65.7731770  36.1943020  61.2889780
  61.0709320  41.6271120  52.4575950  60.5026220  41.1789370  51.8311860
  61.7798320  41.9863900  51.9241100  55.1616130  37.1203370  57.9444770
  54.8763050  36.7559040  58.7823390  55.0994990  36.3883830  57.3307910
  58.6156800  45.6229310  54.7302360  57.8419060  45.0826930  54.5701080
  59.3451430  45.1035920  54.3920120  64.8354720  36.0132630  54.6658140
  64.0219330  35.5145800  54.5903450  64.6416670  36.8530880  54.2494490
  67.5503110  40.3852280  52.9620300  68.4382730  40.6969510  52.7871640
  67.5208200  39.5124530  52.5700880  58.6594200  45.2909690  58.3681170
  59.1772870  44.4877950  58.3138060  58.2078220  45.2288830  59.2098000
  63.5463700  46.5575970  53.6408470  63.8879400  47.3018200  53.1451790
  62.7176410  46.8707090  54.0033300  66.4291110  45.8791810  59.0053980
  66.7814930  45.2819940  58.3455350  65.5453440  45.5536040  59.1762230
  62.5154390  46.6389500  56.4124390  63.2025520  47.1858710  56.7931980
  61.7286810  47.1830230  56.4474000  54.6546790  42.2562320  51.9041470
  55.5241640  42.5387120  52.1877390  54.1637110  43.0698190  51.7890280
  61.8181600  43.6435530  56.0249750  62.2744380  44.4540780  56.2509940
  61.4669810  43.3258670  56.8568240  57.7193380  33.9873180  56.4972270
  57.5908010  33.9791080  57.4457190  56.8955400  34.3256270  56.1463280
  55.0218040  51.4689700  52.4703100  55.3815680  52.0679040  51.8160370
  54.8810380  52.0149590  53.2438130  61.0386660  48.8520900  53.2876770
  61.0296760  49.5850590  52.6721280  60.1185020  48.6052480  53.3803730
  56.6393300  44.0735790  54.0323530  56.0321250  44.8134690  54.0418830
  57.1142650  44.1635150  53.2061730  64.0246260  48.9149140  51.9501960
  64.1258240  48.7113130  51.0203940  63.1248000  48.6607420  52.1549740
  61.5472150  39.4729500  55.9325860  60.8388300  39.9415840  56.3739470
  61.8316630  38.8151510  56.5671050  65.5787580  36.1980160  57.3721650
  65.4555360  36.2166290  56.4231160  66.5272140  36.2459100  57.4920050
  62.6664370  51.4335460  56.6449630  62.9205870  51.3956850  55.7229000
  61.7176850  51.3068790  56.6377880  59.7507170  37.7814580  53.3076570
  60.5997700  38.2184730  53.2416760  59.3838440  38.0934840  54.1348630
  58.6498590  44.0346940  51.7812100  59.4161860  43.9228300  52.3437530
  58.7273280  43.3384910  51.1288870  57.3445350  41.4672010  52.4644990
  57.4248940  40.5199520  52.5762390  58.2365100  41.7978890  52.5705650
  58.1460060  51.6167400  59.5679530  58.8822540  51.0682860  59.8388100
  58.5300980  52.4823410  59.4285520  55.0305540  47.6840970  55.4421040
  54.1045320  47.9262110  55.4326450  55.4961970  48.5115230  55.3205790
  61.2562370  50.7897710  51.3905100  62.0490980  51.0786540  50.9386890
  60.7366720  50.3589880  50.7117580  61.7739770  46.0101120  51.2547450
  61.6690410  45.3953470  51.9808830  61.6063990  45.4867010  50.4710460
  65.0142500  45.0721150  51.8589440  64.4652600  45.5190450  52.5032180
  65.6361760  44.5670400  52.3827110  60.6817620  44.0312070  53.7554740
  61.1034040  43.8651940  54.5986130  60.8068460  43.2212300  53.2609880
  63.1945260  43.0549680  51.0031840  63.7150920  42.3398700  50.6372990
  63.8413660  43.6935550  51.3032350  59.5776520  40.1045300  50.7012900
  59.3765580  39.2412660  51.0626240  59.4068570  40.0178660  49.7634500
  67.0564830  34.9153530  53.2299780  67.3367120  34.0721430  53.5859200
  66.2830560  35.1476640  53.7438530  58.3759320  37.2045920  50.6890780
  58.6785220  37.2113350  49.7809930  59.1153910  36.8543780  51.1858440
  61.5944250  36.1480540  51.6746980  61.2466250  35.4704530  51.0949430
  61.7957020  35.6870050  52.4890370  63.7593290  51.1361290  53.2933580
  64.6544080  51.4746260  53.3152340  63.7910920  50.4140700  52.6657860
  57.3989450  46.5088340  51.5220580  57.8364320  47.0518010  52.1778160
  57.8837180  45.6835290  51.5316920  54.6135250  49.2977370  58.9740840
  54.9438260  48.4298430  58.7419480  55.0426250  49.5035890  59.8045800
  59.2097170  47.6286380  56.6342810  58.9092710  47.5051350  57.5346720
  59.1034660  46.7694970  56.2258540  54.9349890  42.6768190  58.0711350
  54.2798730  42.4079830  57.4271050  55.7727840  42.5672670  57.6213330
  67.8840330  37.4709480  52.2929840  68.3025210  37.2840460  51.4526500
  67.5776390  36.6188530  52.6032770  54.1487970  39.8867120  54.0136680
  53.2452050  40.1497320  53.8388340  54.6328590  40.1578290  53.2336640
  56.6915180  38.9432660  51.9231060  57.4006880  38.5215880  51.4378340
  55.9755120  39.0107890  51.2914410  56.3389340  34.9971990  50.9633710
  57.0617470  35.5380930  51.2814930  56.6113860  34.7235410  50.0875250
  56.0281530  34.2478180  60.8656330  56.6757720  33.6975560  60.4251490
  56.4483370  34.5021330  61.6872140  60.4623260  50.1019080  60.6290070
  60.9788280  49.4906440  60.1038330  61.1120640  50.6047860  61.1201080
  55.1408160  51.2048470  57.0537420  54.9730200  50.5719150  57.7519310
  54.2742670  51.4107870  56.7031610  55.7636180  35.0365250  54.5569280
  56.5215540  35.1494130  53.9833310  55.3013350  35.8734450  54.5112710
  62.3049990  37.1504520  57.5471590  61.4924500  36.7761410  57.2067470
  62.8091630  36.3949600  57.8492780  66.8074970  33.8146970  58.7854660
  67.4104340  34.3867180  59.2603180  66.0667960  34.3786410  58.5628560
  56.7470860  49.8981700  54.4987560  56.2218480  50.2789730  53.7949520
  56.6715440  50.5232470  55.2197270  58.1361330  35.5629300  53.0971250
  58.6654090  34.7759100  52.9679200  58.7689650  36.2420490  53.3306780
  60.3299170  35.3004440  56.1516640  59.7001910  34.5991750  56.3186770
  59.7904310  36.0608570  55.9349800  59.3463830  51.8464080  53.3736810
  60.0782650  51.5623360  52.8260700  59.6057500  51.6077360  54.2636190
  58.5078620  47.9628810  53.3783140  57.8787500  48.4313910  53.9268970
  58.6226450  47.1178030  53.8129330  65.9628340  42.0134470  39.5284340
  65.8822390  41.0989080  39.2576050  65.5492760  42.5101540  38.8224050
  64.0946380  43.7913490  41.4093610  63.3188480  43.3113930  41.6992180
  64.7459310  43.1119140  41.2349770  58.1112210  44.1033300  42.2869370
  57.2797090  43.8482010  42.6865880  58.7193190  44.1744070  43.0227290
  58.0913470  48.1373390  42.4827390  58.3941510  47.2471130  42.3037610
  58.8357060  48.6943610  42.2549640  54.4837170  41.6640840  41.9551460
  55.0553280  40.8963040  41.9555100  54.4838710  41.9629600  41.0458070
  64.3417120  50.4831690  39.8096730  63.7228560  50.9389190  39.2391170
  65.1968900  50.6383150  39.4086430  63.5355370  46.4670680  41.4163770
  63.4663650  45.5260620  41.2552900  64.2975230  46.5572090  41.9886340
  55.7262040  37.0725200  43.7420390  55.5464880  36.1750950  44.0223150
  55.3242120  37.6197070  44.4167340  64.5660540  39.2741060  41.6432700
  64.9425360  38.4012940  41.5306370  64.4680050  39.6099760  40.7523140
  58.6965550  37.6466690  37.1050140  58.8032300  38.5470420  37.4118900
  57.7857910  37.5984660  36.8144790  56.3448710  39.5685700  42.3502730
  57.0258820  39.8324070  42.9690130  56.0296760  38.7286570  42.6840740
  60.5373280  40.6153060  41.4375320  61.0451500  41.1134030  42.0780340
  61.0686520  39.8388260  41.2614680  58.8209380  35.2551620  45.7038740
  58.8227820  35.7724010  44.8984640  57.9913690  34.7781800  45.6808670
  65.2080470  45.3670930  37.2028640  64.5897740  45.8320380  36.6391360
  65.7203720  46.0598410  37.6198150  60.0712230  44.8946800  43.8812240
  59.7381610  45.5215720  44.5233310  60.2478910  45.4208680  43.1013910
  58.5024710  36.9661580  43.7109190  58.8441520  37.8103630  43.4163060
  57.5640520  37.1145320  43.8274530  59.2831330  46.8627600  45.6961420
  59.9005330  47.5378680  45.4145870  58.4224450  47.2715580  45.6048920
  54.5763670  46.0527460  34.5768270  54.1991650  46.5414560  33.8453170
  54.8336740  46.7252740  35.2074800  62.1852600  34.4543850  40.0353780
  62.4927580  33.8990740  39.3189280  61.2553300  34.5888310  39.8526770
  67.7367660  50.1711140  42.3261240  67.7494820  49.7673430  41.4583500
  67.1842880  50.9458430  42.2222670  67.1353100  45.0740980  43.6543850
  67.5521890  44.8601090  42.8197310  67.8592920  45.3313770  44.2252470
  64.5733360  42.5192680  36.7713900  63.6462640  42.4530060  37.0002370
  64.7258180  43.4572810  36.6569140  64.5602440  38.7909680  33.7681060
  63.6206110  38.9523640  33.8533520  64.8785700  39.5095360  33.2217050
  68.6030650  44.0812980  37.2749150  67.9843070  43.7432530  36.6275450
  68.5855100  43.4372740  37.9828340  68.0457210  40.2597520  44.6914960
  67.6328390  41.0851230  44.9454950  67.3133160  39.6742560  44.4991320
  60.1790000  43.0457420  39.5533630  59.7747000  42.3334670  39.0579530
  60.2653120  42.7010660  40.4421670  60.6471700  46.7324980  41.7172840
  60.3499990  46.1270450  41.0380620  61.5971520  46.7702290  41.6062200
  58.8918620  39.8200630  43.3332670  59.4433210  39.9295970  42.5585920
  59.4062130  40.1938230  44.0487900  68.7357310  50.3056850  45.3795940
  68.2587870  51.1129040  45.1868550  68.0519100  49.6535180  45.5322150
  59.7390130  46.4706670  48.3680640  58.8418660  46.6946640  48.6154040
  59.7643000  46.5941610  47.4192040  66.7795350  43.3199790  34.2821900
  67.2188630  42.4822220  34.1359720  67.4923770  43.9529190  34.3686040
  58.5661350  43.3419990  46.9438010  58.4269120  44.2142790  47.3125410
  57.6842710  42.9992800  46.7985950  64.8890730  48.2595860  38.2503140
  65.3286640  49.0020190  37.8358530  64.8277620  48.5022430  39.1742100
  60.3641700  49.2841690  49.1523160  60.3357130  49.6884640  48.2851590
  60.2006670  48.3552050  48.9894760  56.8794630  41.9402400  37.0540280
  56.7592230  42.6664490  36.4421550  56.5695520  41.1705310  36.5768190
  54.5180000  45.1117540  42.8608920  54.5960420  45.2466310  41.9164640
  55.1321680  44.4033430  43.0537040  55.7627630  46.8117730  39.2715100
  55.3555710  46.9532320  38.4168700  56.6540640  46.5277890  39.0686310
  65.5806510  50.9609640  46.1782150  66.0951180  50.8717650  46.9804580
  64.7375590  51.3069340  46.4710060  67.5560910  51.2464980  35.6066150
  67.3962050  50.9567920  36.5047980  67.3907620  50.4705110  35.0711380
  60.0349290  51.0263510  37.3837770  59.8591770  50.1099050  37.1705570
  59.1805030  51.3850800  37.6235570  67.2587040  48.7552540  34.1664150
  66.5652200  48.7529830  33.5066430  68.0009900  48.3311860  33.7358320
  66.8236970  50.3815250  38.2412640  67.2793920  49.6004630  38.5551260
  67.1629490  51.0922070  38.7853820  54.5739520  46.1531710  45.4003380
  54.7370560  45.6837070  44.5822750  55.0391970  45.6455270  46.0652220
  59.3458290  35.2837470  40.4363950  58.9026440  36.0647010  40.1048470
  59.9043280  35.6067360  41.1434890  63.6328100  38.1505990  46.0399270
  63.1707470  38.3589010  46.8519210  63.2306210  37.3365340  45.7369940
  68.6332610  39.3714940  47.1695930  67.7826200  39.0720690  47.4905000
  68.4734400  39.6156950  46.2579750  65.7282320  40.8716690  49.2694720
  66.0535730  40.0380440  48.9296950  66.5162650  41.3945210  49.4173050
  62.4617110  34.9048170  35.3169780  61.8371290  34.9008040  36.0423090
  62.3747230  34.0379130  34.9205750  61.3834190  35.8284800  42.2953550
  61.6806520  36.7347630  42.2145570  61.9319750  35.3403580  41.6813120
  59.1372510  40.4071040  38.1645200  58.9113430  40.1908210  39.0691820
  58.3565040  40.8399500  37.8191170  66.3670270  40.4134410  36.7635850
  65.7679160  41.1370210  36.5799470  66.9149880  40.3511190  35.9812300
  61.5771720  41.3056620  48.8305470  61.4815320  40.3651350  48.6805870
  62.4203700  41.5271690  48.4353540  64.9735140  39.0497950  38.7939130
  65.3664710  39.3670150  37.9807820  65.3351990  38.1709830  38.9083650
  56.7082260  37.7170290  46.9839250  56.3145650  38.5645500  47.1912030
  56.0200660  37.0796660  47.1747890  63.2827310  37.8005260  50.0535990
  62.5925630  37.6077460  50.6882080  64.0259610  38.0839900  50.5860290
  54.1969540  39.5818870  32.2272050  54.1144210  40.5249630  32.3687040
  53.8452600  39.4393780  31.3484400  65.5590280  41.6403700  42.8889910
  64.8271400  42.1490510  43.2380010  65.1614620  40.8233680  42.5878690
  61.9967670  38.3157900  41.2942400  62.0003730  37.8747850  40.4446940
  62.8918790  38.6375230  41.4014220  57.8470050  38.1984390  40.2536610
  57.5070100  38.6759620  41.0103660  57.0847370  37.7449510  39.8937710
  62.0587820  39.3169980  34.2849160  62.1800640  39.2756460  35.2334980
  61.6736330  40.1794130  34.1295890  66.0216190  37.0937380  42.3012850
  66.0388930  37.5446030  43.1454700  65.7731770  36.1943020  42.5146290
  61.0709320  41.6271120  33.6832460  60.5026220  41.1789370  33.0568370
  61.7798320  41.9863900  33.1497610  56.1478500  45.5283140  47.5599190
  55.7633290  44.8876810  48.1582150  56.4590690  46.2319260  48.1293920
  62.2975640  42.3759680  43.0407810  62.6645770  41.9018250  43.7869150
  62.1080700  43.2501250  43.3816150  60.0875010  41.4168320  45.3592020
  59.7832080  42.2960300  45.5842380  61.0421470  41.4768110  45.3949460
  58.6156800  45.6229310  35.9558870  57.8419060  45.0826930  35.7957590
  59.3451430  45.1035920  35.6176630  64.8354720  36.0132630  35.8914650
  64.0219330  35.5145800  35.8159960  64.6416670  36.8530880  35.4751000
  64.7563580  44.6903730  47.6354260  64.6900890  43.7699400  47.3811850
  64.1268720  44.7879170  48.3498900  67.5503110  40.3852280  34.1876810
  68.4382730  40.6969510  34.0128150  67.5208200  39.5124530  33.7957390
  58.6594200  45.2909690  39.5937680  59.1772870  44.4877950  39.5394570
  58.2078220  45.2288830  40.4354510  63.5463700  46.5575970  34.8664980
  63.8879400  47.3018200  34.3708300  62.7176410  46.8707090  35.2289810
  56.1438740  42.2571060  46.5063380  55.7853680  42.9224910  47.0936720
  55.8493300  41.4254610  46.8776000  59.3451860  42.7155300  49.3902930
  59.0452000  42.8612480  48.4930750  60.1163100  42.1560590  49.2976320
  64.6880310  47.5124300  47.3858060  64.7024850  46.5805260  47.1676970
  63.9805410  47.5984060  48.0247830  66.4291110  45.8791810  40.2310490
  66.7814930  45.2819940  39.5711860  65.5453440  45.5536040  40.4018740
  62.5154390  46.6389500  37.6380900  63.2025520  47.1858710  38.0188490
  61.7286810  47.1830230  37.6730510  54.6546790  42.2562320  33.1297980
  55.5241640  42.5387120  33.4133900  54.1637110  43.0698190  33.0146790
  61.8181600  43.6435530  37.2506260  62.2744380  44.4540780  37.4766450
  61.4669810  43.3258670  38.0824750  64.1214210  49.1541870  44.4798560
  64.7656430  49.3601250  45.1571980  64.4843650  48.3930270  44.0269410
  65.3946290  47.1574220  43.1976010  66.0368520  46.4567380  43.3108180
  65.9195640  47.9372660  43.0172900  67.1683910  47.9569120  46.4012070
  67.5040150  48.5435810  47.0789990  66.2484250  47.8261830  46.6309860
  55.0218040  51.4689700  33.6959610  55.3815680  52.0679040  33.0416880
  54.8810380  52.0149590  34.4694640  54.7187310  35.7464300  47.1835480
  54.0045830  35.9461220  47.7888090  55.1382350  34.9703870  47.5550280
  55.0059900  49.7344560  48.1702010  55.1151020  48.7939300  48.0297400
  54.3540460  49.9999310  47.5215740  62.9972490  48.0060450  49.5700130
  62.6769360  47.2869690  50.1145820  62.3230850  48.6815520  49.6436190
  61.0386660  48.8520900  34.5133280  61.0296760  49.5850590  33.8977790
  60.1185020  48.6052480  34.6060240  56.6393300  44.0735790  35.2580040
  56.0321250  44.8134690  35.2675340  57.1142650  44.1635150  34.4318240
  66.2126090  38.2386610  44.9336930  66.5806910  37.4181820  45.2616500
  65.3524290  38.2988500  45.3492580  64.0246260  48.9149140  33.1758470
  64.1258240  48.7113130  32.2460450  63.1248000  48.6607420  33.3806250
  61.5472150  39.4729500  37.1582370  60.8388300  39.9415840  37.5995980
  61.8316630  38.8151510  37.7927560  63.1728080  40.8926200  45.1574900
  63.6713330  41.3672020  45.8226750  63.3151030  39.9689720  45.3644930
  65.5787580  36.1980160  38.5978160  65.4555360  36.2166290  37.6487670
  66.5272140  36.2459100  38.7176560  62.6664370  51.4335460  37.8706140
  62.9205870  51.3956850  36.9485510  61.7176850  51.3068790  37.8634390
  59.7507170  37.7814580  34.5333080  60.5997700  38.2184730  34.4673270
  59.3838440  38.0934840  35.3605140  58.6498590  44.0346940  33.0068610
  59.4161860  43.9228300  33.5694040  58.7273280  43.3384910  32.3545380
  57.3445350  41.4672010  33.6901500  57.4248940  40.5199520  33.8018900
  58.2365100  41.7978890  33.7962160  58.1460060  51.6167400  40.7936040
  58.8822540  51.0682860  41.0644610  58.5300980  52.4823410  40.6542030
  55.0305540  47.6840970  36.6677550  54.1045320  47.9262110  36.6582960
  55.4961970  48.5115230  36.5462300  57.1518340  50.8013470  49.9821620
  57.9531070  51.1225520  50.3957020  56.6370160  50.4409050  50.7041530
  61.2562370  50.7897710  32.6161610  62.0490980  51.0786540  32.1643400
  60.7366720  50.3589880  31.9374090  65.9882970  46.9093340  49.9297030
  65.3821130  46.9324940  49.1892780  65.6837080  46.1776380  50.4664280
  67.4183340  50.6373630  48.5406440  68.3705090  50.5531650  48.4906680
  67.2711560  51.3015340  49.2140230  54.8716150  43.2886930  48.9257670
  55.3755170  42.7094210  49.4973900  54.1323570  43.5727160  49.4634040
  61.7739770  46.0101120  32.4803960  61.6690410  45.3953470  33.2065340
  61.6063990  45.4867010  31.6966970  61.9254090  44.6957920  48.4593190
  61.1599760  45.2642920  48.3747860  62.1070050  44.4034130  47.5661420
  65.0142500  45.0721150  33.0845950  64.4652600  45.5190450  33.7288690
  65.6361760  44.5670400  33.6083620  56.9039230  41.4316520  49.8207740
  56.9444570  41.1330390  50.7292970  57.7584730  41.8324130  49.6615260
  60.6817620  44.0312070  34.9811250  61.1034040  43.8651940  35.8242640
  60.8068460  43.2212300  34.4866390  58.8445040  40.0108620  47.7882230
  58.3141500  39.5199570  47.1605570  59.5133110  40.4392820  47.2540160
  63.1945260  43.0549680  32.2288350  63.7150920  42.3398700  31.8629500
  63.8413660  43.6935550  32.5288860  67.7423100  44.4778080  47.5523420
  68.1564120  44.6323160  48.4013840  66.8074100  44.6033300  47.7149200
  68.2145270  41.8174240  49.5562570  68.7966040  41.0626560  49.4683050
  68.3907040  42.3481680  48.7794050  59.3317340  36.9770990  47.8679520
  59.2374210  36.3591740  47.1430390  58.7514730  37.7037280  47.6409430
  62.0978780  35.5344230  44.9006910  61.6496080  35.5568490  44.0552460
  61.4643980  35.1363250  45.4977210  62.5038330  44.4298560  45.5219350
  62.9226440  45.2731290  45.3495590  61.5846960  44.5670600  45.2926130
  64.8402230  42.1614740  46.9057190  64.9598440  41.5655880  47.6452030
  65.6996230  42.1984430  46.4858490  67.1790130  42.7151930  45.4819700
  66.6525350  43.2394550  44.8784840  67.5221470  43.3479320  46.1129430
  59.5776520  40.1045300  31.9269410  59.3765580  39.2412660  32.2882750
  59.4068570  40.0178660  30.9891010  60.3545750  50.7351570  46.6377080
  59.8166840  51.4597630  46.3185780  60.6079710  50.2581910  45.8474420
  61.6071000  38.7036090  48.1633010  62.1970690  38.3951940  48.8510830
  60.7891240  38.2315840  48.3192910  66.4264430  38.3201900  48.3966030
  65.7379950  37.6583440  48.3316020  67.1470450  37.8740170  48.8414490
  67.0564830  34.9153530  34.4556290  67.3367120  34.0721430  34.8115710
  66.2830560  35.1476640  34.9695040  63.2107960  51.9702780  46.8963730
  63.1366660  52.8737920  47.2036100  62.3086800  51.6514680  46.8685800
  61.5944250  36.1480540  32.9003490  61.2466250  35.4704530  32.3205940
  61.7957020  35.6870050  33.7146880  63.7593290  51.1361290  34.5190090
  64.6544080  51.4746260  34.5408850  63.7910920  50.4140700  33.8914370
  57.3989450  46.5088340  32.7477090  57.8364320  47.0518010  33.4034670
  57.8837180  45.6835290  32.7573430  54.6135250  49.2977370  40.1997350
  54.9438260  48.4298430  39.9675990  55.0426250  49.5035890  41.0302310
  59.2097170  47.6286380  37.8599320  58.9092710  47.5051350  38.7603230
  59.1034660  46.7694970  37.4515050  55.1025460  50.1647960  42.9378980
  54.6656450  50.3448760  43.7703130  55.6703140  50.9222580  42.7960700
  54.9349890  42.6768190  39.2967860  54.2798730  42.4079830  38.6527560
  55.7727840  42.5672670  38.8469840  67.8840330  37.4709480  33.5186350
  68.3025210  37.2840460  32.6783010  67.5776390  36.6188530  33.8289280
  55.9725820  43.0620760  43.8371200  56.3398860  42.9748160  44.7167220
  55.4036640  42.2987310  43.7378060  55.5241820  39.9729850  47.7429620
  54.6297870  39.9396610  48.0823330  56.0639370  40.1716640  48.5080870
  56.6915180  38.9432660  33.1487570  57.4006880  38.5215880  32.6634850
  55.9755120  39.0107890  32.5170920  55.7813530  34.4033850  44.8338160
  55.4328350  34.8597670  45.5996340  55.4501230  33.5090980  44.9160590
  57.3877900  47.5753450  48.9991350  57.3447530  47.2046360  49.8805810
  57.5188910  48.5131020  49.1393170  61.0883930  49.1313040  44.6001070
  60.8475290  49.3987600  43.7131590  62.0286570  49.3018770  44.6551930
  63.2938350  35.5945730  48.3557580  63.2327240  36.1867560  49.1052990
  64.2338730  35.4871690  48.2107840  65.9312910  35.2515790  47.9949870
  66.5453320  35.5695080  47.3330950  66.4762470  34.7664380  48.6145730
  56.4534170  33.9310050  48.1088930  57.0017160  33.7498100  47.3455040
  56.5189480  33.1404160  48.6445240  57.2265930  50.5215700  46.1189130
  56.6326250  50.3900400  46.8579170  57.2189770  49.6853840  45.6531230
  66.6720950  33.8147930  44.3219160  65.7980790  34.1483040  44.1192090
  66.5631700  33.3421110  45.1471030  67.5792930  36.0218800  45.7060880
  67.2506290  35.2070560  45.3262610  68.5275230  35.9788610  45.5826570
  56.8578160  47.8874080  45.0697170  56.1312220  47.2679370  45.0023120
  56.9187310  48.2814690  44.1995250  60.4623260  50.1019080  41.8546580
  60.9788280  49.4906440  41.3294840  61.1120640  50.6047860  42.3457590
  63.2018760  50.9927570  42.6815560  63.4896570  50.7381870  41.8048570
  63.7141980  50.4404930  43.2721130  64.4195770  34.7317770  43.2612070
  63.6367560  35.2063270  43.5408830  64.1258700  33.8272600  43.1525250
  55.1408160  51.2048470  38.2793930  54.9730200  50.5719150  38.9775820
  54.2742670  51.4107870  37.9288120  62.3049990  37.1504520  38.7728100
  61.4924500  36.7761410  38.4323980  62.8091630  36.3949600  39.0749290
  66.8074970  33.8146970  40.0111170  67.4104340  34.3867180  40.4859690
  66.0667960  34.3786410  39.7885070  56.7470860  49.8981700  35.7244070
  56.2218480  50.2789730  35.0206030  56.6715440  50.5232470  36.4453780
  60.3299170  35.3004440  37.3773150  59.7001910  34.5991750  37.5443280
  59.7904310  36.0608570  37.1606310  63.2691120  51.9143670  50.0483760
  64.1958430  51.6787940  50.0919720  63.2541550  52.7415670  49.5669790
  60.4554730  34.5788420  49.8125640  60.1739000  35.0822020  49.0486460
  60.8374430  33.7810170  49.4467770  59.3463830  51.8464080  34.5993320
  60.0782650  51.5623360  34.0517210  59.6057500  51.6077360  35.4892700
  58.5078620  47.9628810  34.6039650  57.8787500  48.4313910  35.1525480
  58.6226450  47.1178030  35.0385840  67.0570190  33.9942000  50.3906110
  66.9435640  34.3136610  51.2857630  67.8739930  34.3954510  50.0943390
  65.9628340  42.0134470  20.7540850  65.8822390  41.0989080  20.4832560
  65.5492760  42.5101540  20.0480560  64.0946380  43.7913490  22.6350120
  63.3188480  43.3113930  22.9248690  64.7459310  43.1119140  22.4606280
  58.1112210  44.1033300  23.5125880  57.2797090  43.8482010  23.9122390
  58.7193190  44.1744070  24.2483800  58.0913470  48.1373390  23.7083900
  58.3941510  47.2471130  23.5294120  58.8357060  48.6943610  23.4806150
  56.5204160  39.0635190  17.2968270  55.6320860  39.4051160  17.1948150
  56.8045350  38.8635510  16.4049100  54.4837170  41.6640840  23.1807970
  55.0553280  40.8963040  23.1811610  54.4838710  41.9629600  22.2714580
  64.3417120  50.4831690  21.0353240  63.7228560  50.9389190  20.4647680
  65.1968900  50.6383150  20.6342940  63.5355370  46.4670680  22.6420280
  63.4663650  45.5260620  22.4809410  64.2975230  46.5572090  23.2142850
  55.7262040  37.0725200  24.9676900  55.5464880  36.1750950  25.2479660
  55.3242120  37.6197070  25.6423850  64.5660540  39.2741060  22.8689210
  64.9425360  38.4012940  22.7562880  64.4680050  39.6099760  21.9779650
  58.6965550  37.6466690  18.3306650  58.8032300  38.5470420  18.6375410
  57.7857910  37.5984660  18.0401300  56.3448710  39.5685700  23.5759240
  57.0258820  39.8324070  24.1946640  56.0296760  38.7286570  23.9097250
  60.5373280  40.6153060  22.6631830  61.0451500  41.1134030  23.3036850
  61.0686520  39.8388260  22.4871190  58.8209380  35.2551620  26.9295250
  58.8227820  35.7724010  26.1241150  57.9913690  34.7781800  26.9065180
  65.2080470  45.3670930  18.4285150  64.5897740  45.8320380  17.8647870
  65.7203720  46.0598410  18.8454660  60.0712230  44.8946800  25.1068750
  59.7381610  45.5215720  25.7489820  60.2478910  45.4208680  24.3270420
  58.5024710  36.9661580  24.9365700  58.8441520  37.8103630  24.6419570
  57.5640520  37.1145320  25.0531040  59.2831330  46.8627600  26.9217930
  59.9005330  47.5378680  26.6402380  58.4224450  47.2715580  26.8305430
  54.5763670  46.0527460  15.8024780  54.1991650  46.5414560  15.0709680
  54.8336740  46.7252740  16.4331310  62.1852600  34.4543850  21.2610290
  62.4927580  33.8990740  20.5445790  61.2553300  34.5888310  21.0783280
  67.7367660  50.1711140  23.5517750  67.7494820  49.7673430  22.6840010
  67.1842880  50.9458430  23.4479180  67.1353100  45.0740980  24.8800360
  67.5521890  44.8601090  24.0453820  67.8592920  45.3313770  25.4508980
  64.5733360  42.5192680  17.9970410  63.6462640  42.4530060  18.2258880
  64.7258180  43.4572810  17.8825650  64.5602440  38.7909680  14.9937570
  63.6206110  38.9523640  15.0790030  64.8785700  39.5095360  14.4473560
  68.6030650  44.0812980  18.5005660  67.9843070  43.7432530  17.8531960
  68.5855100  43.4372740  19.2084850  68.0457210  40.2597520  25.9171470
  67.6328390  41.0851230  26.1711460  67.3133160  39.6742560  25.7247830
  60.1790000  43.0457420  20.7790140  59.7747000  42.3334670  20.2836040
  60.2653120  42.7010660  21.6678180  60.6471700  46.7324980  22.9429350
  60.3499990  46.1270450  22.2637130  61.5971520  46.7702290  22.8318710
  58.8918620  39.8200630  24.5589180  59.4433210  39.9295970  23.7842430
  59.4062130  40.1938230  25.2744410  68.7357310  50.3056850  26.6052450
  68.2587870  51.1129040  26.4125060  68.0519100  49.6535180  26.7578660
  59.7390130  46.4706670  29.5937150  58.8418660  46.6946640  29.8410550
  59.7643000  46.5941610  28.6448550  66.7795350  43.3199790  15.5078410
  67.2188630  42.4822220  15.3616230  67.4923770  43.9529190  15.5942550
  58.5661350  43.3419990  28.1694520  58.4269120  44.2142790  28.5381920
  57.6842710  42.9992800  28.0242460  64.8890730  48.2595860  19.4759650
  65.3286640  49.0020190  19.0615040  64.8277620  48.5022430  20.3998610
  60.3641700  49.2841690  30.3779670  60.3357130  49.6884640  29.5108100
  60.2006670  48.3552050  30.2151270  56.8794630  41.9402400  18.2796790
  56.7592230  42.6664490  17.6678060  56.5695520  41.1705310  17.8024700
  54.5180000  45.1117540  24.0865430  54.5960420  45.2466310  23.1421150
  55.1321680  44.4033430  24.2793550  55.7627630  46.8117730  20.4971610
  55.3555710  46.9532320  19.6425210  56.6540640  46.5277890  20.2942820
  65.5806510  50.9609640  27.4038660  66.0951180  50.8717650  28.2061090
  64.7375590  51.3069340  27.6966570  67.5560910  51.2464980  16.8322660
  67.3962050  50.9567920  17.7304490  67.3907620  50.4705110  16.2967890
  60.0349290  51.0263510  18.6094280  59.8591770  50.1099050  18.3962080
  59.1805030  51.3850800  18.8492080  67.2587040  48.7552540  15.3920660
  66.5652200  48.7529830  14.7322940  68.0009900  48.3311860  14.9614830
  66.8236970  50.3815250  19.4669150  67.2793920  49.6004630  19.7807770
  67.1629490  51.0922070  20.0110330  54.5739520  46.1531710  26.6259890
  54.7370560  45.6837070  25.8079260  55.0391970  45.6455270  27.2908730
  59.3458290  35.2837470  21.6620460  58.9026440  36.0647010  21.3304980
  59.9043280  35.6067360  22.3691400  63.6328100  38.1505990  27.2655780
  63.1707470  38.3589010  28.0775720  63.2306210  37.3365340  26.9626450
  68.6332610  39.3714940  28.3952440  67.7826200  39.0720690  28.7161510
  68.4734400  39.6156950  27.4836260  65.7282320  40.8716690  30.4951230
  66.0535730  40.0380440  30.1553460  66.5162650  41.3945210  30.6429560
  62.4617110  34.9048170  16.5426290  61.8371290  34.9008040  17.2679600
  62.3747230  34.0379130  16.1462260  61.3834190  35.8284800  23.5210060
  61.6806520  36.7347630  23.4402080  61.9319750  35.3403580  22.9069630
  59.1372510  40.4071040  19.3901710  58.9113430  40.1908210  20.2948330
  58.3565040  40.8399500  19.0447680  66.3670270  40.4134410  17.9892360
  65.7679160  41.1370210  17.8055980  66.9149880  40.3511190  17.2068810
  61.5771720  41.3056620  30.0561980  61.4815320  40.3651350  29.9062380
  62.4203700  41.5271690  29.6610050  64.9735140  39.0497950  20.0195640
  65.3664710  39.3670150  19.2064330  65.3351990  38.1709830  20.1340160
  56.7082260  37.7170290  28.2095760  56.3145650  38.5645500  28.4168540
  56.0200660  37.0796660  28.4004400  63.2827310  37.8005260  31.2792500
  62.5925630  37.6077460  31.9138590  64.0259610  38.0839900  31.8116800
  54.0099310  35.6398750  22.2425840  53.7212360  36.2101610  22.9550820
  54.7545070  35.1603200  22.6057070  54.1969540  39.5818870  13.4528560
  54.1144210  40.5249630  13.5943550  53.8452600  39.4393780  12.5740910
  65.5590280  41.6403700  24.1146420  64.8271400  42.1490510  24.4636520
  65.1614620  40.8233680  23.8135200  61.9967670  38.3157900  22.5198910
  62.0003730  37.8747850  21.6703450  62.8918790  38.6375230  22.6270730
  57.8470050  38.1984390  21.4793120  57.5070100  38.6759620  22.2360170
  57.0847370  37.7449510  21.1194220  62.0587820  39.3169980  15.5105670
  62.1800640  39.2756460  16.4591490  61.6736330  40.1794130  15.3552400
  66.0216190  37.0937380  23.5269360  66.0388930  37.5446030  24.3711210
  65.7731770  36.1943020  23.7402800  61.0709320  41.6271120  14.9088970
  60.5026220  41.1789370  14.2824880  61.7798320  41.9863900  14.3754120
  56.1478500  45.5283140  28.7855700  55.7633290  44.8876810  29.3838660
  56.4590690  46.2319260  29.3550430  62.2975640  42.3759680  24.2664320
  62.6645770  41.9018250  25.0125660  62.1080700  43.2501250  24.6072660
  55.1616130  37.1203370  20.3957790  54.8763050  36.7559040  21.2336410
  55.0994990  36.3883830  19.7820930  60.0875010  41.4168320  26.5848530
  59.7832080  42.2960300  26.8098890  61.0421470  41.4768110  26.6205970
  58.6156800  45.6229310  17.1815380  57.8419060  45.0826930  17.0214100
  59.3451430  45.1035920  16.8433140  64.8354720  36.0132630  17.1171160
  64.0219330  35.5145800  17.0416470  64.6416670  36.8530880  16.7007510
  64.7563580  44.6903730  28.8610770  64.6900890  43.7699400  28.6068360
  64.1268720  44.7879170  29.5755410  67.5503110  40.3852280  15.4133320
  68.4382730  40.6969510  15.2384660  67.5208200  39.5124530  15.0213900
  58.6594200  45.2909690  20.8194190  59.1772870  44.4877950  20.7651080
  58.2078220  45.2288830  21.6611020  63.5463700  46.5575970  16.0921490
  63.8879400  47.3018200  15.5964810  62.7176410  46.8707090  16.4546320
  56.1438740  42.2571060  27.7319890  55.7853680  42.9224910  28.3193230
  55.8493300  41.4254610  28.1032510  59.3451860  42.7155300  30.6159440
  59.0452000  42.8612480  29.7187260  60.1163100  42.1560590  30.5232830
  64.6880310  47.5124300  28.6114570  64.7024850  46.5805260  28.3933480
  63.9805410  47.5984060  29.2504340  66.4291110  45.8791810  21.4567000
  66.7814930  45.2819940  20.7968370  65.5453440  45.5536040  21.6275250
  62.5154390  46.6389500  18.8637410  63.2025520  47.1858710  19.2445000
  61.7286810  47.1830230  18.8987020  54.6546790  42.2562320  14.3554490
  55.5241640  42.5387120  14.6390410  54.1637110  43.0698190  14.2403300
  61.8181600  43.6435530  18.4762770  62.2744380  44.4540780  18.7022960
  61.4669810  43.3258670  19.3081260  64.1214210  49.1541870  25.7055070
  64.7656430  49.3601250  26.3828490  64.4843650  48.3930270  25.2525920
  57.7193380  33.9873180  18.9485290  57.5908010  33.9791080  19.8970210
  56.8955400  34.3256270  18.5976300  65.3946290  47.1574220  24.4232520
  66.0368520  46.4567380  24.5364690  65.9195640  47.9372660  24.2429410
  67.1683910  47.9569120  27.6268580  67.5040150  48.5435810  28.3046500
  66.2484250  47.8261830  27.8566370  55.0218040  51.4689700  14.9216120
  55.3815680  52.0679040  14.2673390  54.8810380  52.0149590  15.6951150
  54.7187310  35.7464300  28.4091990  54.0045830  35.9461220  29.0144600
  55.1382350  34.9703870  28.7806790  55.0059900  49.7344560  29.3958520
  55.1151020  48.7939300  29.2553910  54.3540460  49.9999310  28.7472250
  62.9972490  48.0060450  30.7956640  62.6769360  47.2869690  31.3402330
  62.3230850  48.6815520  30.8692700  61.0386660  48.8520900  15.7389790
  61.0296760  49.5850590  15.1234300  60.1185020  48.6052480  15.8316750
  56.6393300  44.0735790  16.4836550  56.0321250  44.8134690  16.4931850
  57.1142650  44.1635150  15.6574750  66.2126090  38.2386610  26.1593440
  66.5806910  37.4181820  26.4873010  65.3524290  38.2988500  26.5749090
  64.0246260  48.9149140  14.4014980  64.1258240  48.7113130  13.4716960
  63.1248000  48.6607420  14.6062760  61.5472150  39.4729500  18.3838880
  60.8388300  39.9415840  18.8252490  61.8316630  38.8151510  19.0184070
  63.1728080  40.8926200  26.3831410  63.6713330  41.3672020  27.0483260
  63.3151030  39.9689720  26.5901440  65.5787580  36.1980160  19.8234670
  65.4555360  36.2166290  18.8744180  66.5272140  36.2459100  19.9433070
  62.6664370  51.4335460  19.0962650  62.9205870  51.3956850  18.1742020
  61.7176850  51.3068790  19.0890900  59.7507170  37.7814580  15.7589590
  60.5997700  38.2184730  15.6929780  59.3838440  38.0934840  16.5861650
  58.6498590  44.0346940  14.2325120  59.4161860  43.9228300  14.7950550
  58.7273280  43.3384910  13.5801890  57.3445350  41.4672010  14.9158010
  57.4248940  40.5199520  15.0275410  58.2365100  41.7978890  15.0218670
  58.1460060  51.6167400  22.0192550  58.8822540  51.0682860  22.2901120
  58.5300980  52.4823410  21.8798540  55.0305540  47.6840970  17.8934060
  54.1045320  47.9262110  17.8839470  55.4961970  48.5115230  17.7718810
  57.1518340  50.8013470  31.2078130  57.9531070  51.1225520  31.6213530
  56.6370160  50.4409050  31.9298040  61.2562370  50.7897710  13.8418120
  62.0490980  51.0786540  13.3899910  60.7366720  50.3589880  13.1630600
  65.9882970  46.9093340  31.1553540  65.3821130  46.9324940  30.4149290
  65.6837080  46.1776380  31.6920790  67.4183340  50.6373630  29.7662950
  68.3705090  50.5531650  29.7163190  67.2711560  51.3015340  30.4396740
  54.8716150  43.2886930  30.1514180  55.3755170  42.7094210  30.7230410
  54.1323570  43.5727160  30.6890550  61.7739770  46.0101120  13.7060470
  61.6690410  45.3953470  14.4321850  61.6063990  45.4867010  12.9223480
  61.9254090  44.6957920  29.6849700  61.1599760  45.2642920  29.6004370
  62.1070050  44.4034130  28.7917930  65.0142500  45.0721150  14.3102460
  64.4652600  45.5190450  14.9545200  65.6361760  44.5670400  14.8340130
  56.9039230  41.4316520  31.0464250  56.9444570  41.1330390  31.9549480
  57.7584730  41.8324130  30.8871770  60.6817620  44.0312070  16.2067760
  61.1034040  43.8651940  17.0499150  60.8068460  43.2212300  15.7122900
  58.8445040  40.0108620  29.0138740  58.3141500  39.5199570  28.3862080
  59.5133110  40.4392820  28.4796670  63.1945260  43.0549680  13.4544860
  63.7150920  42.3398700  13.0886010  63.8413660  43.6935550  13.7545370
  67.7423100  44.4778080  28.7779930  68.1564120  44.6323160  29.6270350
  66.8074100  44.6033300  28.9405710  68.2145270  41.8174240  30.7819080
  68.7966040  41.0626560  30.6939560  68.3907040  42.3481680  30.0050560
  59.3317340  36.9770990  29.0936030  59.2374210  36.3591740  28.3686900
  58.7514730  37.7037280  28.8665940  62.0978780  35.5344230  26.1263420
  61.6496080  35.5568490  25.2808970  61.4643980  35.1363250  26.7233720
  62.5038330  44.4298560  26.7475860  62.9226440  45.2731290  26.5752100
  61.5846960  44.5670600  26.5182640  64.8402230  42.1614740  28.1313700
  64.9598440  41.5655880  28.8708540  65.6996230  42.1984430  27.7115000
  67.1790130  42.7151930  26.7076210  66.6525350  43.2394550  26.1041350
  67.5221470  43.3479320  27.3385940  59.5776520  40.1045300  13.1525920
  59.3765580  39.2412660  13.5139260  59.4068570  40.0178660  12.2147520
  60.3545750  50.7351570  27.8633590  59.8166840  51.4597630  27.5442290
  60.6079710  50.2581910  27.0730930  61.6071000  38.7036090  29.3889520
  62.1970690  38.3951940  30.0767340  60.7891240  38.2315840  29.5449420
  66.4264430  38.3201900  29.6222540  65.7379950  37.6583440  29.5572530
  67.1470450  37.8740170  30.0671000  67.0564830  34.9153530  15.6812800
  67.3367120  34.0721430  16.0372220  66.2830560  35.1476640  16.1951550
  58.3759320  37.2045920  13.1403800  58.6785220  37.2113350  12.2322950
  59.1153910  36.8543780  13.6371460  63.2107960  51.9702780  28.1220240
  63.1366660  52.8737920  28.4292610  62.3086800  51.6514680  28.0942310
  61.5944250  36.1480540  14.1260000  61.2466250  35.4704530  13.5462450
  61.7957020  35.6870050  14.9403390  63.7593290  51.1361290  15.7446600
  64.6544080  51.4746260  15.7665360  63.7910920  50.4140700  15.1170880
  57.3989450  46.5088340  13.9733600  57.8364320  47.0518010  14.6291180
  57.8837180  45.6835290  13.9829940  54.6135250  49.2977370  21.4253860
  54.9438260  48.4298430  21.1932500  55.0426250  49.5035890  22.2558820
  59.2097170  47.6286380  19.0855830  58.9092710  47.5051350  19.9859740
  59.1034660  46.7694970  18.6771560  55.1025460  50.1647960  24.1635490
  54.6656450  50.3448760  24.9959640  55.6703140  50.9222580  24.0217210
  54.9349890  42.6768190  20.5224370  54.2798730  42.4079830  19.8784070
  55.7727840  42.5672670  20.0726350  67.8840330  37.4709480  14.7442860
  68.3025210  37.2840460  13.9039520  67.5776390  36.6188530  15.0545790
  55.9725820  43.0620760  25.0627710  56.3398860  42.9748160  25.9423730
  55.4036640  42.2987310  24.9634570  55.5241820  39.9729850  28.9686130
  54.6297870  39.9396610  29.3079840  56.0639370  40.1716640  29.7337380
  54.1487970  39.8867120  16.4649700  53.2452050  40.1497320  16.2901360
  54.6328590  40.1578290  15.6849660  56.6915180  38.9432660  14.3744080
  57.4006880  38.5215880  13.8891360  55.9755120  39.0107890  13.7427430
  56.3389340  34.9971990  13.4146730  57.0617470  35.5380930  13.7327950
  56.6113860  34.7235410  12.5388270  56.0281530  34.2478180  23.3169350
  56.6757720  33.6975560  22.8764510  56.4483370  34.5021330  24.1385160
  55.7813530  34.4033850  26.0594670  55.4328350  34.8597670  26.8252850
  55.4501230  33.5090980  26.1417100  57.3877900  47.5753450  30.2247860
  57.3447530  47.2046360  31.1062320  57.5188910  48.5131020  30.3649680
  61.0883930  49.1313040  25.8257580  60.8475290  49.3987600  24.9388100
  62.0286570  49.3018770  25.8808440  63.2938350  35.5945730  29.5814090
  63.2327240  36.1867560  30.3309500  64.2338730  35.4871690  29.4364350
  65.9312910  35.2515790  29.2206380  66.5453320  35.5695080  28.5587460
  66.4762470  34.7664380  29.8402240  57.2265930  50.5215700  27.3445640
  56.6326250  50.3900400  28.0835680  57.2189770  49.6853840  26.8787740
  66.6720950  33.8147930  25.5475670  65.7980790  34.1483040  25.3448600
  66.5631700  33.3421110  26.3727540  67.5792930  36.0218800  26.9317390
  67.2506290  35.2070560  26.5519120  68.5275230  35.9788610  26.8083080
  56.8578160  47.8874080  26.2953680  56.1312220  47.2679370  26.2279630
  56.9187310  48.2814690  25.4251760  60.4623260  50.1019080  23.0803090
  60.9788280  49.4906440  22.5551350  61.1120640  50.6047860  23.5714100
  63.2018760  50.9927570  23.9072070  63.4896570  50.7381870  23.0305080
  63.7141980  50.4404930  24.4977640  64.4195770  34.7317770  24.4868580
  63.6367560  35.2063270  24.7665340  64.1258700  33.8272600  24.3781760
  55.1408160  51.2048470  19.5050440  54.9730200  50.5719150  20.2032330
  54.2742670  51.4107870  19.1544630  55.7636180  35.0365250  17.0082300
  56.5215540  35.1494130  16.4346330  55.3013350  35.8734450  16.9625730
  62.3049990  37.1504520  19.9984610  61.4924500  36.7761410  19.6580490
  62.8091630  36.3949600  20.3005800  66.8074970  33.8146970  21.2367680
  67.4104340  34.3867180  21.7116200  66.0667960  34.3786410  21.0141580
  56.7470860  49.8981700  16.9500580  56.2218480  50.2789730  16.2462540
  56.6715440  50.5232470  17.6710290  58.1361330  35.5629300  15.5484270
  58.6654090  34.7759100  15.4192220  58.7689650  36.2420490  15.7819800
  60.3299170  35.3004440  18.6029660  59.7001910  34.5991750  18.7699790
  59.7904310  36.0608570  18.3862820  63.2691120  51.9143670  31.2740270
  64.1958430  51.6787940  31.3176230  63.2541550  52.7415670  30.7926300
  60.4554730  34.5788420  31.0382150  60.1739000  35.0822020  30.2742970
  60.8374430  33.7810170  30.6724280  59.3463830  51.8464080  15.8249830
  60.0782650  51.5623360  15.2773720  59.6057500  51.6077360  16.7149210
  58.5078620  47.9628810  15.8296160  57.8787500  48.4313910  16.3781990
  58.6226450  47.1178030  16.2642350  67.0570190  33.9942000  31.6162620
  66.9435640  34.3136610  32.5114140  67.8739930  34.3954510  31.3199900
  64.0946380  43.7913490   3.8606630  63.3188480  43.3113930   4.1505200
  64.7459310  43.1119140   3.6862790  58.1112210  44.1033300   4.7382390
  57.2797090  43.8482010   5.1378900  58.7193190  44.1744070   5.4740310
  58.0913470  48.1373390   4.9340410  58.3941510  47.2471130   4.7550630
  58.8357060  48.6943610   4.7062660  54.4837170  41.6640840   4.4064480
  55.0553280  40.8963040   4.4068120  54.4838710  41.9629600   3.4971090
  64.3417120  50.4831690   2.2609750  63.7228560  50.9389190   1.6904190
  65.1968900  50.6383150   1.8599450  63.5355370  46.4670680   3.8676790
  63.4663650  45.5260620   3.7065920  64.2975230  46.5572090   4.4399360
  55.7262040  37.0725200   6.1933410  55.5464880  36.1750950   6.4736170
  55.3242120  37.6197070   6.8680360  64.5660540  39.2741060   4.0945720
  64.9425360  38.4012940   3.9819390  64.4680050  39.6099760   3.2036160
  56.3448710  39.5685700   4.8015750  57.0258820  39.8324070   5.4203150
  56.0296760  38.7286570   5.1353760  60.5373280  40.6153060   3.8888340
  61.0451500  41.1134030   4.5293360  61.0686520  39.8388260   3.7127700
  58.8209380  35.2551620   8.1551760  58.8227820  35.7724010   7.3497660
  57.9913690  34.7781800   8.1321690  60.0712230  44.8946800   6.3325260
  59.7381610  45.5215720   6.9746330  60.2478910  45.4208680   5.5526930
  58.5024710  36.9661580   6.1622210  58.8441520  37.8103630   5.8676080
  57.5640520  37.1145320   6.2787550  59.2831330  46.8627600   8.1474440
  59.9005330  47.5378680   7.8658890  58.4224450  47.2715580   8.0561940
  62.1852600  34.4543850   2.4866800  62.4927580  33.8990740   1.7702300
  61.2553300  34.5888310   2.3039790  67.7367660  50.1711140   4.7774260
  67.7494820  49.7673430   3.9096520  67.1842880  50.9458430   4.6735690
  67.1353100  45.0740980   6.1056870  67.5521890  44.8601090   5.2710330
  67.8592920  45.3313770   6.6765490  68.0457210  40.2597520   7.1427980
  67.6328390  41.0851230   7.3967970  67.3133160  39.6742560   6.9504340
  60.6471700  46.7324980   4.1685860  60.3499990  46.1270450   3.4893640
  61.5971520  46.7702290   4.0575220  58.8918620  39.8200630   5.7845690
  59.4433210  39.9295970   5.0098940  59.4062130  40.1938230   6.5000920
  68.7357310  50.3056850   7.8308960  68.2587870  51.1129040   7.6381570
  68.0519100  49.6535180   7.9835170  59.7390130  46.4706670  10.8193660
  58.8418660  46.6946640  11.0667060  59.7643000  46.5941610   9.8705060
  58.5661350  43.3419990   9.3951030  58.4269120  44.2142790   9.7638430
  57.6842710  42.9992800   9.2498970  60.3641700  49.2841690  11.6036180
  60.3357130  49.6884640  10.7364610  60.2006670  48.3552050  11.4407780
  54.5180000  45.1117540   5.3121940  54.5960420  45.2466310   4.3677660
  55.1321680  44.4033430   5.5050060  65.5806510  50.9609640   8.6295170
  66.0951180  50.8717650   9.4317600  64.7375590  51.3069340   8.9223080
  54.5739520  46.1531710   7.8516400  54.7370560  45.6837070   7.0335770
  55.0391970  45.6455270   8.5165240  59.3458290  35.2837470   2.8876970
  58.9026440  36.0647010   2.5561490  59.9043280  35.6067360   3.5947910
  63.6328100  38.1505990   8.4912290  63.1707470  38.3589010   9.3032230
  63.2306210  37.3365340   8.1882960  68.6332610  39.3714940   9.6208950
  67.7826200  39.0720690   9.9418020  68.4734400  39.6156950   8.7092770
  65.7282320  40.8716690  11.7207740  66.0535730  40.0380440  11.3809970
  66.5162650  41.3945210  11.8686070  61.3834190  35.8284800   4.7466570
  61.6806520  36.7347630   4.6658590  61.9319750  35.3403580   4.1326140
  61.5771720  41.3056620  11.2818490  61.4815320  40.3651350  11.1318890
  62.4203700  41.5271690  10.8866560  56.7082260  37.7170290   9.4352270
  56.3145650  38.5645500   9.6425050  56.0200660  37.0796660   9.6260910
  63.2827310  37.8005260  12.5049010  62.5925630  37.6077460  13.1395100
  64.0259610  38.0839900  13.0373310  54.0099310  35.6398750   3.4682350
  53.7212360  36.2101610   4.1807330  54.7545070  35.1603200   3.8313580
  65.5590280  41.6403700   5.3402930  64.8271400  42.1490510   5.6893030
  65.1614620  40.8233680   5.0391710  61.9967670  38.3157900   3.7455420
  62.0003730  37.8747850   2.8959960  62.8918790  38.6375230   3.8527240
  57.8470050  38.1984390   2.7049630  57.5070100  38.6759620   3.4616680
  57.0847370  37.7449510   2.3450730  66.0216190  37.0937380   4.7525870
  66.0388930  37.5446030   5.5967720  65.7731770  36.1943020   4.9659310
  56.1478500  45.5283140  10.0112210  55.7633290  44.8876810  10.6095170
  56.4590690  46.2319260  10.5806940  62.2975640  42.3759680   5.4920830
  62.6645770  41.9018250   6.2382170  62.1080700  43.2501250   5.8329170
  60.0875010  41.4168320   7.8105040  59.7832080  42.2960300   8.0355400
  61.0421470  41.4768110   7.8462480  64.7563580  44.6903730  10.0867280
  64.6900890  43.7699400   9.8324870  64.1268720  44.7879170  10.8011920
  58.6594200  45.2909690   2.0450700  59.1772870  44.4877950   1.9907590
  58.2078220  45.2288830   2.8867530  56.1438740  42.2571060   8.9576400
  55.7853680  42.9224910   9.5449740  55.8493300  41.4254610   9.3289020
  59.3451860  42.7155300  11.8415950  59.0452000  42.8612480  10.9443770
  60.1163100  42.1560590  11.7489340  64.6880310  47.5124300   9.8371080
  64.7024850  46.5805260   9.6189990  63.9805410  47.5984060  10.4760850
  66.4291110  45.8791810   2.6823510  66.7814930  45.2819940   2.0224880
  65.5453440  45.5536040   2.8531760  64.1214210  49.1541870   6.9311580
  64.7656430  49.3601250   7.6085000  64.4843650  48.3930270   6.4782430
  65.3946290  47.1574220   5.6489030  66.0368520  46.4567380   5.7621200
  65.9195640  47.9372660   5.4685920  67.1683910  47.9569120   8.8525090
  67.5040150  48.5435810   9.5303010  66.2484250  47.8261830   9.0822880
  54.7187310  35.7464300   9.6348500  54.0045830  35.9461220  10.2401110
  55.1382350  34.9703870  10.0063300  55.0059900  49.7344560  10.6215030
  55.1151020  48.7939300  10.4810420  54.3540460  49.9999310   9.9728760
  62.9972490  48.0060450  12.0213150  62.6769360  47.2869690  12.5658840
  62.3230850  48.6815520  12.0949210  66.2126090  38.2386610   7.3849950
  66.5806910  37.4181820   7.7129520  65.3524290  38.2988500   7.8005600
  63.1728080  40.8926200   7.6087920  63.6713330  41.3672020   8.2739770
  63.3151030  39.9689720   7.8157950  58.1460060  51.6167400   3.2449060
  58.8822540  51.0682860   3.5157630  58.5300980  52.4823410   3.1055050
  57.1518340  50.8013470  12.4334640  57.9531070  51.1225520  12.8470040
  56.6370160  50.4409050  13.1554550  65.9882970  46.9093340  12.3810050
  65.3821130  46.9324940  11.6405800  65.6837080  46.1776380  12.9177300
  67.4183340  50.6373630  10.9919460  68.3705090  50.5531650  10.9419700
  67.2711560  51.3015340  11.6653250  54.8716150  43.2886930  11.3770690
  55.3755170  42.7094210  11.9486920  54.1323570  43.5727160  11.9147060
  61.9254090  44.6957920  10.9106210  61.1599760  45.2642920  10.8260880
  62.1070050  44.4034130  10.0174440  56.9039230  41.4316520  12.2720760
  56.9444570  41.1330390  13.1805990  57.7584730  41.8324130  12.1128280
  58.8445040  40.0108620  10.2395250  58.3141500  39.5199570   9.6118590
  59.5133110  40.4392820   9.7053180  67.7423100  44.4778080  10.0036440
  68.1564120  44.6323160  10.8526860  66.8074100  44.6033300  10.1662220
  68.2145270  41.8174240  12.0075590  68.7966040  41.0626560  11.9196070
  68.3907040  42.3481680  11.2307070  59.3317340  36.9770990  10.3192540
  59.2374210  36.3591740   9.5943410  58.7514730  37.7037280  10.0922450
  62.0978780  35.5344230   7.3519930  61.6496080  35.5568490   6.5065480
  61.4643980  35.1363250   7.9490230  62.5038330  44.4298560   7.9732370
  62.9226440  45.2731290   7.8008610  61.5846960  44.5670600   7.7439150
  64.8402230  42.1614740   9.3570210  64.9598440  41.5655880  10.0965050
  65.6996230  42.1984430   8.9371510  67.1790130  42.7151930   7.9332720
  66.6525350  43.2394550   7.3297860  67.5221470  43.3479320   8.5642450
  60.3545750  50.7351570   9.0890100  59.8166840  51.4597630   8.7698800
  60.6079710  50.2581910   8.2987440  61.6071000  38.7036090  10.6146030
  62.1970690  38.3951940  11.3023850  60.7891240  38.2315840  10.7705930
  66.4264430  38.3201900  10.8479050  65.7379950  37.6583440  10.7829040
  67.1470450  37.8740170  11.2927510  63.2107960  51.9702780   9.3476750
  63.1366660  52.8737920   9.6549120  62.3086800  51.6514680   9.3198820
  54.6135250  49.2977370   2.6510370  54.9438260  48.4298430   2.4189010
  55.0426250  49.5035890   3.4815330  55.1025460  50.1647960   5.3892000
  54.6656450  50.3448760   6.2216150  55.6703140  50.9222580   5.2473720
  55.9725820  43.0620760   6.2884220  56.3398860  42.9748160   7.1680240
  55.4036640  42.2987310   6.1891080  55.5241820  39.9729850  10.1942640
  54.6297870  39.9396610  10.5336350  56.0639370  40.1716640  10.9593890
  56.0281530  34.2478180   4.5425860  56.6757720  33.6975560   4.1021020
  56.4483370  34.5021330   5.3641670  55.7813530  34.4033850   7.2851180
  55.4328350  34.8597670   8.0509360  55.4501230  33.5090980   7.3673610
  57.3877900  47.5753450  11.4504370  57.3447530  47.2046360  12.3318830
  57.5188910  48.5131020  11.5906190  61.0883930  49.1313040   7.0514090
  60.8475290  49.3987600   6.1644610  62.0286570  49.3018770   7.1064950
  63.2938350  35.5945730  10.8070600  63.2327240  36.1867560  11.5566010
  64.2338730  35.4871690  10.6620860  65.9312910  35.2515790  10.4462890
  66.5453320  35.5695080   9.7843970  66.4762470  34.7664380  11.0658750
  56.4534170  33.9310050  10.5601950  57.0017160  33.7498100   9.7968060
  56.5189480  33.1404160  11.0958260  57.2265930  50.5215700   8.5702150
  56.6326250  50.3900400   9.3092190  57.2189770  49.6853840   8.1044250
  66.6720950  33.8147930   6.7732180  65.7980790  34.1483040   6.5705110
  66.5631700  33.3421110   7.5984050  67.5792930  36.0218800   8.1573900
  67.2506290  35.2070560   7.7775630  68.5275230  35.9788610   8.0339590
  56.8578160  47.8874080   7.5210190  56.1312220  47.2679370   7.4536140
  56.9187310  48.2814690   6.6508270  60.4623260  50.1019080   4.3059600
  60.9788280  49.4906440   3.7807860  61.1120640  50.6047860   4.7970610
  63.2018760  50.9927570   5.1328580  63.4896570  50.7381870   4.2561590
  63.7141980  50.4404930   5.7234150  64.4195770  34.7317770   5.7125090
  63.6367560  35.2063270   5.9921850  64.1258700  33.8272600   5.6038270
  66.8074970  33.8146970   2.4624190  67.4104340  34.3867180   2.9372710
  66.0667960  34.3786410   2.2398090  63.2691120  51.9143670  12.4996780
  64.1958430  51.6787940  12.5432740  63.2541550  52.7415670  12.0182810
  60.4554730  34.5788420  12.2638660  60.1739000  35.0822020  11.4999480
  60.8374430  33.7810170  11.8980790  67.0570190  33.9942000  12.8419130
  66.9435640  34.3136610  13.7370650  67.8739930  34.3954510  12.5456410
  65.9628340  23.2390980  58.3027830  65.8822390  22.3245590  58.0319540
  65.5492760  23.7358050  57.5967540  64.0946380  25.0170000  60.1837100
  63.3188480  24.5370440  60.4735670  64.7459310  24.3375650  60.0093260
  58.1112210  25.3289810  61.0612860  57.2797090  25.0738520  61.4609370
  58.7193190  25.4000580  61.7970780  58.0913470  29.3629900  61.2570880
  58.3941510  28.4727640  61.0781100  58.8357060  29.9200120  61.0293130
  56.5204160  20.2891700  54.8455250  55.6320860  20.6307670  54.7435130
  56.8045350  20.0892020  53.9536080  54.4837170  22.8897350  60.7294950
  55.0553280  22.1219550  60.7298590  54.4838710  23.1886110  59.8201560
  64.3417120  31.7088200  58.5840220  63.7228560  32.1645700  58.0134660
  65.1968900  31.8639660  58.1829920  63.5355370  27.6927190  60.1907260
  63.4663650  26.7517130  60.0296390  64.2975230  27.7828600  60.7629830
  64.5660540  20.4997570  60.4176190  64.9425360  19.6269450  60.3049860
  64.4680050  20.8356270  59.5266630  58.6965550  18.8723200  55.8793630
  58.8032300  19.7726930  56.1862390  57.7857910  18.8241170  55.5888280
  56.3448710  20.7942210  61.1246220  57.0258820  21.0580580  61.7433620
  56.0296760  19.9543080  61.4584230  60.5373280  21.8409570  60.2118810
  61.0451500  22.3390540  60.8523830  61.0686520  21.0644770  60.0358170
  65.2080470  26.5927440  55.9772130  64.5897740  27.0576890  55.4134850
  65.7203720  27.2854920  56.3941640  54.5763670  27.2783970  53.3511760
  54.1991650  27.7671070  52.6196660  54.8336740  27.9509250  53.9818290
  62.1852600  15.6800360  58.8097270  62.4927580  15.1247250  58.0932770
  61.2553300  15.8144820  58.6270260  67.7367660  31.3967650  61.1004730
  67.7494820  30.9929940  60.2326990  67.1842880  32.1714940  60.9966160
  64.5733360  23.7449190  55.5457390  63.6462640  23.6786570  55.7745860
  64.7258180  24.6829320  55.4312630  64.5602440  20.0166190  52.5424550
  63.6206110  20.1780150  52.6277010  64.8785700  20.7351870  51.9960540
  68.6030650  25.3069490  56.0492640  67.9843070  24.9689040  55.4018940
  68.5855100  24.6629250  56.7571830  60.1790000  24.2713930  58.3277120
  59.7747000  23.5591180  57.8323020  60.2653120  23.9267170  59.2165160
  60.6471700  27.9581490  60.4916330  60.3499990  27.3526960  59.8124110
  61.5971520  27.9958800  60.3805690  66.7795350  24.5456300  53.0565390
  67.2188630  23.7078730  52.9103210  67.4923770  25.1785700  53.1429530
  64.8890730  29.4852370  57.0246630  65.3286640  30.2276700  56.6102020
  64.8277620  29.7278940  57.9485590  56.8794630  23.1658910  55.8283770
  56.7592230  23.8921000  55.2165040  56.5695520  22.3961820  55.3511680
  54.5180000  26.3374050  61.6352410  54.5960420  26.4722820  60.6908130
  55.1321680  25.6289940  61.8280530  55.7627630  28.0374240  58.0458590
  55.3555710  28.1788830  57.1912190  56.6540640  27.7534400  57.8429800
  67.5560910  32.4721490  54.3809640  67.3962050  32.1824430  55.2791470
  67.3907620  31.6961620  53.8454870  60.0349290  32.2520020  56.1581260
  59.8591770  31.3355560  55.9449060  59.1805030  32.6107310  56.3979060
  67.2587040  29.9809050  52.9407640  66.5652200  29.9786340  52.2809920
  68.0009900  29.5568370  52.5101810  66.8236970  31.6071760  57.0156130
  67.2793920  30.8261140  57.3294750  67.1629490  32.3178580  57.5597310
  59.3458290  16.5093980  59.2107440  58.9026440  17.2903520  58.8791960
  59.9043280  16.8323870  59.9178380  62.4617110  16.1304680  54.0913270
  61.8371290  16.1264550  54.8166580  62.3747230  15.2635640  53.6949240
  61.3834190  17.0541310  61.0697040  61.6806520  17.9604140  60.9889060
  61.9319750  16.5660090  60.4556610  59.1372510  21.6327550  56.9388690
  58.9113430  21.4164720  57.8435310  58.3565040  22.0656010  56.5934660
  66.3670270  21.6390920  55.5379340  65.7679160  22.3626720  55.3542960
  66.9149880  21.5767700  54.7555790  64.9735140  20.2754460  57.5682620
  65.3664710  20.5926660  56.7551310  65.3351990  19.3966340  57.6827140
  54.0099310  16.8655260  59.7912820  53.7212360  17.4358120  60.5037800
  54.7545070  16.3859710  60.1544050  54.1969540  20.8075380  51.0015540
  54.1144210  21.7506140  51.1430530  53.8452600  20.6650290  50.1227890
  61.9967670  19.5414410  60.0685890  62.0003730  19.1004360  59.2190430
  62.8918790  19.8631740  60.1757710  57.8470050  19.4240900  59.0280100
  57.5070100  19.9016130  59.7847150  57.0847370  18.9706020  58.6681200
  62.0587820  20.5426490  53.0592650  62.1800640  20.5012970  54.0078470
  61.6736330  21.4050640  52.9039380  66.0216190  18.3193890  61.0756340
  66.0388930  18.7702540  61.9198190  65.7731770  17.4199530  61.2889780
  61.0709320  22.8527630  52.4575950  60.5026220  22.4045880  51.8311860
  61.7798320  23.2120410  51.9241100  55.1616130  18.3459880  57.9444770
  54.8763050  17.9815550  58.7823390  55.0994990  17.6140340  57.3307910
  58.6156800  26.8485820  54.7302360  57.8419060  26.3083440  54.5701080
  59.3451430  26.3292430  54.3920120  64.8354720  17.2389140  54.6658140
  64.0219330  16.7402310  54.5903450  64.6416670  18.0787390  54.2494490
  67.5503110  21.6108790  52.9620300  68.4382730  21.9226020  52.7871640
  67.5208200  20.7381040  52.5700880  58.6594200  26.5166200  58.3681170
  59.1772870  25.7134460  58.3138060  58.2078220  26.4545340  59.2098000
  63.5463700  27.7832480  53.6408470  63.8879400  28.5274710  53.1451790
  62.7176410  28.0963600  54.0033300  66.4291110  27.1048320  59.0053980
  66.7814930  26.5076450  58.3455350  65.5453440  26.7792550  59.1762230
  62.5154390  27.8646010  56.4124390  63.2025520  28.4115220  56.7931980
  61.7286810  28.4086740  56.4474000  54.6546790  23.4818830  51.9041470
  55.5241640  23.7643630  52.1877390  54.1637110  24.2954700  51.7890280
  61.8181600  24.8692040  56.0249750  62.2744380  25.6797290  56.2509940
  61.4669810  24.5515180  56.8568240  57.7193380  15.2129690  56.4972270
  57.5908010  15.2047590  57.4457190  56.8955400  15.5512780  56.1463280
  55.0218040  32.6946210  52.4703100  55.3815680  33.2935550  51.8160370
  54.8810380  33.2406100  53.2438130  61.0386660  30.0777410  53.2876770
  61.0296760  30.8107100  52.6721280  60.1185020  29.8308990  53.3803730
  56.6393300  25.2992300  54.0323530  56.0321250  26.0391200  54.0418830
  57.1142650  25.3891660  53.2061730  64.0246260  30.1405650  51.9501960
  64.1258240  29.9369640  51.0203940  63.1248000  29.8863930  52.1549740
  61.5472150  20.6986010  55.9325860  60.8388300  21.1672350  56.3739470
  61.8316630  20.0408020  56.5671050  65.5787580  17.4236670  57.3721650
  65.4555360  17.4422800  56.4231160  66.5272140  17.4715610  57.4920050
  62.6664370  32.6591970  56.6449630  62.9205870  32.6213360  55.7229000
  61.7176850  32.5325300  56.6377880  59.7507170  19.0071090  53.3076570
  60.5997700  19.4441240  53.2416760  59.3838440  19.3191350  54.1348630
  58.6498590  25.2603450  51.7812100  59.4161860  25.1484810  52.3437530
  58.7273280  24.5641420  51.1288870  57.3445350  22.6928520  52.4644990
  57.4248940  21.7456030  52.5762390  58.2365100  23.0235400  52.5705650
  58.1460060  32.8423910  59.5679530  58.8822540  32.2939370  59.8388100
  58.5300980  33.7079920  59.4285520  55.0305540  28.9097480  55.4421040
  54.1045320  29.1518620  55.4326450  55.4961970  29.7371740  55.3205790
  61.2562370  32.0154220  51.3905100  62.0490980  32.3043050  50.9386890
  60.7366720  31.5846390  50.7117580  61.7739770  27.2357630  51.2547450
  61.6690410  26.6209980  51.9808830  61.6063990  26.7123520  50.4710460
  65.0142500  26.2977660  51.8589440  64.4652600  26.7446960  52.5032180
  65.6361760  25.7926910  52.3827110  60.6817620  25.2568580  53.7554740
  61.1034040  25.0908450  54.5986130  60.8068460  24.4468810  53.2609880
  63.1945260  24.2806190  51.0031840  63.7150920  23.5655210  50.6372990
  63.8413660  24.9192060  51.3032350  59.5776520  21.3301810  50.7012900
  59.3765580  20.4669170  51.0626240  59.4068570  21.2435170  49.7634500
  67.0564830  16.1410040  53.2299780  67.3367120  15.2977940  53.5859200
  66.2830560  16.3733150  53.7438530  58.3759320  18.4302430  50.6890780
  58.6785220  18.4369860  49.7809930  59.1153910  18.0800290  51.1858440
  61.5944250  17.3737050  51.6746980  61.2466250  16.6961040  51.0949430
  61.7957020  16.9126560  52.4890370  63.7593290  32.3617800  53.2933580
  64.6544080  32.7002770  53.3152340  63.7910920  31.6397210  52.6657860
  57.3989450  27.7344850  51.5220580  57.8364320  28.2774520  52.1778160
  57.8837180  26.9091800  51.5316920  54.6135250  30.5233880  58.9740840
  54.9438260  29.6554940  58.7419480  55.0426250  30.7292400  59.8045800
  59.2097170  28.8542890  56.6342810  58.9092710  28.7307860  57.5346720
  59.1034660  27.9951480  56.2258540  54.9349890  23.9024700  58.0711350
  54.2798730  23.6336340  57.4271050  55.7727840  23.7929180  57.6213330
  67.8840330  18.6965990  52.2929840  68.3025210  18.5096970  51.4526500
  67.5776390  17.8445040  52.6032770  54.1487970  21.1123630  54.0136680
  53.2452050  21.3753830  53.8388340  54.6328590  21.3834800  53.2336640
  56.6915180  20.1689170  51.9231060  57.4006880  19.7472390  51.4378340
  55.9755120  20.2364400  51.2914410  56.3389340  16.2228500  50.9633710
  57.0617470  16.7637440  51.2814930  56.6113860  15.9491920  50.0875250
  56.0281530  15.4734690  60.8656330  56.6757720  14.9232070  60.4251490
  56.4483370  15.7277840  61.6872140  60.4623260  31.3275590  60.6290070
  60.9788280  30.7162950  60.1038330  61.1120640  31.8304370  61.1201080
  55.1408160  32.4304980  57.0537420  54.9730200  31.7975660  57.7519310
  54.2742670  32.6364380  56.7031610  55.7636180  16.2621760  54.5569280
  56.5215540  16.3750640  53.9833310  55.3013350  17.0990960  54.5112710
  62.3049990  18.3761030  57.5471590  61.4924500  18.0017920  57.2067470
  62.8091630  17.6206110  57.8492780  66.8074970  15.0403480  58.7854660
  67.4104340  15.6123690  59.2603180  66.0667960  15.6042920  58.5628560
  56.7470860  31.1238210  54.4987560  56.2218480  31.5046240  53.7949520
  56.6715440  31.7488980  55.2197270  58.1361330  16.7885810  53.0971250
  58.6654090  16.0015610  52.9679200  58.7689650  17.4677000  53.3306780
  60.3299170  16.5260950  56.1516640  59.7001910  15.8248260  56.3186770
  59.7904310  17.2865080  55.9349800  59.3463830  33.0720590  53.3736810
  60.0782650  32.7879870  52.8260700  59.6057500  32.8333870  54.2636190
  58.5078620  29.1885320  53.3783140  57.8787500  29.6570420  53.9268970
  58.6226450  28.3434540  53.8129330  65.9628340  23.2390980  39.5284340
  65.8822390  22.3245590  39.2576050  65.5492760  23.7358050  38.8224050
  64.0946380  25.0170000  41.4093610  63.3188480  24.5370440  41.6992180
  64.7459310  24.3375650  41.2349770  58.1112210  25.3289810  42.2869370
  57.2797090  25.0738520  42.6865880  58.7193190  25.4000580  43.0227290
  58.0913470  29.3629900  42.4827390  58.3941510  28.4727640  42.3037610
  58.8357060  29.9200120  42.2549640  56.5204160  20.2891700  36.0711760
  55.6320860  20.6307670  35.9691640  56.8045350  20.0892020  35.1792590
  54.4837170  22.8897350  41.9551460  55.0553280  22.1219550  41.9555100
  54.4838710  23.1886110  41.0458070  64.3417120  31.7088200  39.8096730
  63.7228560  32.1645700  39.2391170  65.1968900  31.8639660  39.4086430
  63.5355370  27.6927190  41.4163770  63.4663650  26.7517130  41.2552900
  64.2975230  27.7828600  41.9886340  55.7262040  18.2981710  43.7420390
  55.5464880  17.4007460  44.0223150  55.3242120  18.8453580  44.4167340
  64.5660540  20.4997570  41.6432700  64.9425360  19.6269450  41.5306370
  64.4680050  20.8356270  40.7523140  58.6965550  18.8723200  37.1050140
  58.8032300  19.7726930  37.4118900  57.7857910  18.8241170  36.8144790
  56.3448710  20.7942210  42.3502730  57.0258820  21.0580580  42.9690130
  56.0296760  19.9543080  42.6840740  60.5373280  21.8409570  41.4375320
  61.0451500  22.3390540  42.0780340  61.0686520  21.0644770  41.2614680
  58.8209380  16.4808130  45.7038740  58.8227820  16.9980520  44.8984640
  57.9913690  16.0038310  45.6808670  65.2080470  26.5927440  37.2028640
  64.5897740  27.0576890  36.6391360  65.7203720  27.2854920  37.6198150
  60.0712230  26.1203310  43.8812240  59.7381610  26.7472230  44.5233310
  60.2478910  26.6465190  43.1013910  58.5024710  18.1918090  43.7109190
  58.8441520  19.0360140  43.4163060  57.5640520  18.3401830  43.8274530
  59.2831330  28.0884110  45.6961420  59.9005330  28.7635190  45.4145870
  58.4224450  28.4972090  45.6048920  62.1852600  15.6800360  40.0353780
  62.4927580  15.1247250  39.3189280  61.2553300  15.8144820  39.8526770
  67.7367660  31.3967650  42.3261240  67.7494820  30.9929940  41.4583500
  67.1842880  32.1714940  42.2222670  67.1353100  26.2997490  43.6543850
  67.5521890  26.0857600  42.8197310  67.8592920  26.5570280  44.2252470
  64.5733360  23.7449190  36.7713900  63.6462640  23.6786570  37.0002370
  64.7258180  24.6829320  36.6569140  64.5602440  20.0166190  33.7681060
  63.6206110  20.1780150  33.8533520  64.8785700  20.7351870  33.2217050
  68.6030650  25.3069490  37.2749150  67.9843070  24.9689040  36.6275450
  68.5855100  24.6629250  37.9828340  68.0457210  21.4854030  44.6914960
  67.6328390  22.3107740  44.9454950  67.3133160  20.8999070  44.4991320
  60.1790000  24.2713930  39.5533630  59.7747000  23.5591180  39.0579530
  60.2653120  23.9267170  40.4421670  60.6471700  27.9581490  41.7172840
  60.3499990  27.3526960  41.0380620  61.5971520  27.9958800  41.6062200
  58.8918620  21.0457140  43.3332670  59.4433210  21.1552480  42.5585920
  59.4062130  21.4194740  44.0487900  68.7357310  31.5313360  45.3795940
  68.2587870  32.3385550  45.1868550  68.0519100  30.8791690  45.5322150
  59.7390130  27.6963180  48.3680640  58.8418660  27.9203150  48.6154040
  59.7643000  27.8198120  47.4192040  66.7795350  24.5456300  34.2821900
  67.2188630  23.7078730  34.1359720  67.4923770  25.1785700  34.3686040
  58.5661350  24.5676500  46.9438010  58.4269120  25.4399300  47.3125410
  57.6842710  24.2249310  46.7985950  64.8890730  29.4852370  38.2503140
  65.3286640  30.2276700  37.8358530  64.8277620  29.7278940  39.1742100
  60.3641700  30.5098200  49.1523160  60.3357130  30.9141150  48.2851590
  60.2006670  29.5808560  48.9894760  56.8794630  23.1658910  37.0540280
  56.7592230  23.8921000  36.4421550  56.5695520  22.3961820  36.5768190
  65.5806510  32.1866150  46.1782150  66.0951180  32.0974160  46.9804580
  64.7375590  32.5325850  46.4710060  67.5560910  32.4721490  35.6066150
  67.3962050  32.1824430  36.5047980  67.3907620  31.6961620  35.0711380
  60.0349290  32.2520020  37.3837770  59.8591770  31.3355560  37.1705570
  59.1805030  32.6107310  37.6235570  67.2587040  29.9809050  34.1664150
  66.5652200  29.9786340  33.5066430  68.0009900  29.5568370  33.7358320
  66.8236970  31.6071760  38.2412640  67.2793920  30.8261140  38.5551260
  67.1629490  32.3178580  38.7853820  59.3458290  16.5093980  40.4363950
  58.9026440  17.2903520  40.1048470  59.9043280  16.8323870  41.1434890
  63.6328100  19.3762500  46.0399270  63.1707470  19.5845520  46.8519210
  63.2306210  18.5621850  45.7369940  68.6332610  20.5971450  47.1695930
  67.7826200  20.2977200  47.4905000  68.4734400  20.8413460  46.2579750
  65.7282320  22.0973200  49.2694720  66.0535730  21.2636950  48.9296950
  66.5162650  22.6201720  49.4173050  62.4617110  16.1304680  35.3169780
  61.8371290  16.1264550  36.0423090  62.3747230  15.2635640  34.9205750
  61.3834190  17.0541310  42.2953550  61.6806520  17.9604140  42.2145570
  61.9319750  16.5660090  41.6813120  59.1372510  21.6327550  38.1645200
  58.9113430  21.4164720  39.0691820  58.3565040  22.0656010  37.8191170
  66.3670270  21.6390920  36.7635850  65.7679160  22.3626720  36.5799470
  66.9149880  21.5767700  35.9812300  61.5771720  22.5313130  48.8305470
  61.4815320  21.5907860  48.6805870  62.4203700  22.7528200  48.4353540
  64.9735140  20.2754460  38.7939130  65.3664710  20.5926660  37.9807820
  65.3351990  19.3966340  38.9083650  56.7082260  18.9426800  46.9839250
  56.3145650  19.7902010  47.1912030  56.0200660  18.3053170  47.1747890
  63.2827310  19.0261770  50.0535990  62.5925630  18.8333970  50.6882080
  64.0259610  19.3096410  50.5860290  54.0099310  16.8655260  41.0169330
  53.7212360  17.4358120  41.7294310  54.7545070  16.3859710  41.3800560
  54.1969540  20.8075380  32.2272050  54.1144210  21.7506140  32.3687040
  53.8452600  20.6650290  31.3484400  65.5590280  22.8660210  42.8889910
  64.8271400  23.3747020  43.2380010  65.1614620  22.0490190  42.5878690
  61.9967670  19.5414410  41.2942400  62.0003730  19.1004360  40.4446940
  62.8918790  19.8631740  41.4014220  57.8470050  19.4240900  40.2536610
  57.5070100  19.9016130  41.0103660  57.0847370  18.9706020  39.8937710
  62.0587820  20.5426490  34.2849160  62.1800640  20.5012970  35.2334980
  61.6736330  21.4050640  34.1295890  66.0216190  18.3193890  42.3012850
  66.0388930  18.7702540  43.1454700  65.7731770  17.4199530  42.5146290
  61.0709320  22.8527630  33.6832460  60.5026220  22.4045880  33.0568370
  61.7798320  23.2120410  33.1497610  56.1478500  26.7539650  47.5599190
  55.7633290  26.1133320  48.1582150  56.4590690  27.4575770  48.1293920
  62.2975640  23.6016190  43.0407810  62.6645770  23.1274760  43.7869150
  62.1080700  24.4757760  43.3816150  55.1616130  18.3459880  39.1701280
  54.8763050  17.9815550  40.0079900  55.0994990  17.6140340  38.5564420
  60.0875010  22.6424830  45.3592020  59.7832080  23.5216810  45.5842380
  61.0421470  22.7024620  45.3949460  58.6156800  26.8485820  35.9558870
  57.8419060  26.3083440  35.7957590  59.3451430  26.3292430  35.6176630
  64.8354720  17.2389140  35.8914650  64.0219330  16.7402310  35.8159960
  64.6416670  18.0787390  35.4751000  64.7563580  25.9160240  47.6354260
  64.6900890  24.9955910  47.3811850  64.1268720  26.0135680  48.3498900
  67.5503110  21.6108790  34.1876810  68.4382730  21.9226020  34.0128150
  67.5208200  20.7381040  33.7957390  58.6594200  26.5166200  39.5937680
  59.1772870  25.7134460  39.5394570  58.2078220  26.4545340  40.4354510
  63.5463700  27.7832480  34.8664980  63.8879400  28.5274710  34.3708300
  62.7176410  28.0963600  35.2289810  56.1438740  23.4827570  46.5063380
  55.7853680  24.1481420  47.0936720  55.8493300  22.6511120  46.8776000
  59.3451860  23.9411810  49.3902930  59.0452000  24.0868990  48.4930750
  60.1163100  23.3817100  49.2976320  64.6880310  28.7380810  47.3858060
  64.7024850  27.8061770  47.1676970  63.9805410  28.8240570  48.0247830
  66.4291110  27.1048320  40.2310490  66.7814930  26.5076450  39.5711860
  65.5453440  26.7792550  40.4018740  62.5154390  27.8646010  37.6380900
  63.2025520  28.4115220  38.0188490  61.7286810  28.4086740  37.6730510
  54.6546790  23.4818830  33.1297980  55.5241640  23.7643630  33.4133900
  54.1637110  24.2954700  33.0146790  61.8181600  24.8692040  37.2506260
  62.2744380  25.6797290  37.4766450  61.4669810  24.5515180  38.0824750
  64.1214210  30.3798380  44.4798560  64.7656430  30.5857760  45.1571980
  64.4843650  29.6186780  44.0269410  57.7193380  15.2129690  37.7228780
  57.5908010  15.2047590  38.6713700  56.8955400  15.5512780  37.3719790
  65.3946290  28.3830730  43.1976010  66.0368520  27.6823890  43.3108180
  65.9195640  29.1629170  43.0172900  67.1683910  29.1825630  46.4012070
  67.5040150  29.7692320  47.0789990  66.2484250  29.0518340  46.6309860
  54.7187310  16.9720810  47.1835480  54.0045830  17.1717730  47.7888090
  55.1382350  16.1960380  47.5550280  55.0059900  30.9601070  48.1702010
  55.1151020  30.0195810  48.0297400  54.3540460  31.2255820  47.5215740
  62.9972490  29.2316960  49.5700130  62.6769360  28.5126200  50.1145820
  62.3230850  29.9072030  49.6436190  61.0386660  30.0777410  34.5133280
  61.0296760  30.8107100  33.8977790  60.1185020  29.8308990  34.6060240
  66.2126090  19.4643120  44.9336930  66.5806910  18.6438330  45.2616500
  65.3524290  19.5245010  45.3492580  64.0246260  30.1405650  33.1758470
  64.1258240  29.9369640  32.2460450  63.1248000  29.8863930  33.3806250
  61.5472150  20.6986010  37.1582370  60.8388300  21.1672350  37.5995980
  61.8316630  20.0408020  37.7927560  63.1728080  22.1182710  45.1574900
  63.6713330  22.5928530  45.8226750  63.3151030  21.1946230  45.3644930
  65.5787580  17.4236670  38.5978160  65.4555360  17.4422800  37.6487670
  66.5272140  17.4715610  38.7176560  62.6664370  32.6591970  37.8706140
  62.9205870  32.6213360  36.9485510  61.7176850  32.5325300  37.8634390
  59.7507170  19.0071090  34.5333080  60.5997700  19.4441240  34.4673270
  59.3838440  19.3191350  35.3605140  58.6498590  25.2603450  33.0068610
  59.4161860  25.1484810  33.5694040  58.7273280  24.5641420  32.3545380
  57.3445350  22.6928520  33.6901500  57.4248940  21.7456030  33.8018900
  58.2365100  23.0235400  33.7962160  58.1460060  32.8423910  40.7936040
  58.8822540  32.2939370  41.0644610  58.5300980  33.7079920  40.6542030
  57.1518340  32.0269980  49.9821620  57.9531070  32.3482030  50.3957020
  56.6370160  31.6665560  50.7041530  61.2562370  32.0154220  32.6161610
  62.0490980  32.3043050  32.1643400  60.7366720  31.5846390  31.9374090
  65.9882970  28.1349850  49.9297030  65.3821130  28.1581450  49.1892780
  65.6837080  27.4032890  50.4664280  67.4183340  31.8630140  48.5406440
  68.3705090  31.7788160  48.4906680  67.2711560  32.5271850  49.2140230
  54.8716150  24.5143440  48.9257670  55.3755170  23.9350720  49.4973900
  54.1323570  24.7983670  49.4634040  61.7739770  27.2357630  32.4803960
  61.6690410  26.6209980  33.2065340  61.6063990  26.7123520  31.6966970
  61.9254090  25.9214430  48.4593190  61.1599760  26.4899430  48.3747860
  62.1070050  25.6290640  47.5661420  65.0142500  26.2977660  33.0845950
  64.4652600  26.7446960  33.7288690  65.6361760  25.7926910  33.6083620
  56.9039230  22.6573030  49.8207740  56.9444570  22.3586900  50.7292970
  57.7584730  23.0580640  49.6615260  60.6817620  25.2568580  34.9811250
  61.1034040  25.0908450  35.8242640  60.8068460  24.4468810  34.4866390
  58.8445040  21.2365130  47.7882230  58.3141500  20.7456080  47.1605570
  59.5133110  21.6649330  47.2540160  63.1945260  24.2806190  32.2288350
  63.7150920  23.5655210  31.8629500  63.8413660  24.9192060  32.5288860
  67.7423100  25.7034590  47.5523420  68.1564120  25.8579670  48.4013840
  66.8074100  25.8289810  47.7149200  68.2145270  23.0430750  49.5562570
  68.7966040  22.2883070  49.4683050  68.3907040  23.5738190  48.7794050
  59.3317340  18.2027500  47.8679520  59.2374210  17.5848250  47.1430390
  58.7514730  18.9293790  47.6409430  62.0978780  16.7600740  44.9006910
  61.6496080  16.7825000  44.0552460  61.4643980  16.3619760  45.4977210
  62.5038330  25.6555070  45.5219350  62.9226440  26.4987800  45.3495590
  61.5846960  25.7927110  45.2926130  64.8402230  23.3871250  46.9057190
  64.9598440  22.7912390  47.6452030  65.6996230  23.4240940  46.4858490
  67.1790130  23.9408440  45.4819700  66.6525350  24.4651060  44.8784840
  67.5221470  24.5735830  46.1129430  59.5776520  21.3301810  31.9269410
  59.3765580  20.4669170  32.2882750  59.4068570  21.2435170  30.9891010
  60.3545750  31.9608080  46.6377080  59.8166840  32.6854140  46.3185780
  60.6079710  31.4838420  45.8474420  61.6071000  19.9292600  48.1633010
  62.1970690  19.6208450  48.8510830  60.7891240  19.4572350  48.3192910
  66.4264430  19.5458410  48.3966030  65.7379950  18.8839950  48.3316020
  67.1470450  19.0996680  48.8414490  67.0564830  16.1410040  34.4556290
  67.3367120  15.2977940  34.8115710  66.2830560  16.3733150  34.9695040
  58.3759320  18.4302430  31.9147290  58.6785220  18.4369860  31.0066440
  59.1153910  18.0800290  32.4114950  63.2107960  33.1959290  46.8963730
  63.1366660  34.0994430  47.2036100  62.3086800  32.8771190  46.8685800
  61.5944250  17.3737050  32.9003490  61.2466250  16.6961040  32.3205940
  61.7957020  16.9126560  33.7146880  63.7593290  32.3617800  34.5190090
  64.6544080  32.7002770  34.5408850  63.7910920  31.6397210  33.8914370
  59.2097170  28.8542890  37.8599320  58.9092710  28.7307860  38.7603230
  59.1034660  27.9951480  37.4515050  54.9349890  23.9024700  39.2967860
  54.2798730  23.6336340  38.6527560  55.7727840  23.7929180  38.8469840
  67.8840330  18.6965990  33.5186350  68.3025210  18.5096970  32.6783010
  67.5776390  17.8445040  33.8289280  55.9725820  24.2877270  43.8371200
  56.3398860  24.2004670  44.7167220  55.4036640  23.5243820  43.7378060
  55.5241820  21.1986360  47.7429620  54.6297870  21.1653120  48.0823330
  56.0639370  21.3973150  48.5080870  54.1487970  21.1123630  35.2393190
  53.2452050  21.3753830  35.0644850  54.6328590  21.3834800  34.4593150
  56.6915180  20.1689170  33.1487570  57.4006880  19.7472390  32.6634850
  55.9755120  20.2364400  32.5170920  56.3389340  16.2228500  32.1890220
  57.0617470  16.7637440  32.5071440  56.6113860  15.9491920  31.3131760
  56.0281530  15.4734690  42.0912840  56.6757720  14.9232070  41.6508000
  56.4483370  15.7277840  42.9128650  55.7813530  15.6290360  44.8338160
  55.4328350  16.0854180  45.5996340  55.4501230  14.7347490  44.9160590
  57.3877900  28.8009960  48.9991350  57.3447530  28.4302870  49.8805810
  57.5188910  29.7387530  49.1393170  61.0883930  30.3569550  44.6001070
  60.8475290  30.6244110  43.7131590  62.0286570  30.5275280  44.6551930
  63.2938350  16.8202240  48.3557580  63.2327240  17.4124070  49.1052990
  64.2338730  16.7128200  48.2107840  65.9312910  16.4772300  47.9949870
  66.5453320  16.7951590  47.3330950  66.4762470  15.9920890  48.6145730
  56.4534170  15.1566560  48.1088930  57.0017160  14.9754610  47.3455040
  56.5189480  14.3660670  48.6445240  57.2265930  31.7472210  46.1189130
  56.6326250  31.6156910  46.8579170  57.2189770  30.9110350  45.6531230
  66.6720950  15.0404440  44.3219160  65.7980790  15.3739550  44.1192090
  66.5631700  14.5677620  45.1471030  67.5792930  17.2475310  45.7060880
  67.2506290  16.4327070  45.3262610  68.5275230  17.2045120  45.5826570
  56.8578160  29.1130590  45.0697170  56.1312220  28.4935880  45.0023120
  56.9187310  29.5071200  44.1995250  60.4623260  31.3275590  41.8546580
  60.9788280  30.7162950  41.3294840  61.1120640  31.8304370  42.3457590
  63.2018760  32.2184080  42.6815560  63.4896570  31.9638380  41.8048570
  63.7141980  31.6661440  43.2721130  64.4195770  15.9574280  43.2612070
  63.6367560  16.4319780  43.5408830  64.1258700  15.0529110  43.1525250
  55.7636180  16.2621760  35.7825790  56.5215540  16.3750640  35.2089820
  55.3013350  17.0990960  35.7369220  62.3049990  18.3761030  38.7728100
  61.4924500  18.0017920  38.4323980  62.8091630  17.6206110  39.0749290
  66.8074970  15.0403480  40.0111170  67.4104340  15.6123690  40.4859690
  66.0667960  15.6042920  39.7885070  58.1361330  16.7885810  34.3227760
  58.6654090  16.0015610  34.1935710  58.7689650  17.4677000  34.5563290
  60.3299170  16.5260950  37.3773150  59.7001910  15.8248260  37.5443280
  59.7904310  17.2865080  37.1606310  63.2691120  33.1400180  50.0483760
  64.1958430  32.9044450  50.0919720  63.2541550  33.9672180  49.5669790
  60.4554730  15.8044930  49.8125640  60.1739000  16.3078530  49.0486460
  60.8374430  15.0066680  49.4467770  67.0570190  15.2198510  50.3906110
  66.9435640  15.5393120  51.2857630  67.8739930  15.6211020  50.0943390
  65.9628340  23.2390980  20.7540850  65.8822390  22.3245590  20.4832560
  65.5492760  23.7358050  20.0480560  64.0946380  25.0170000  22.6350120
  63.3188480  24.5370440  22.9248690  64.7459310  24.3375650  22.4606280
  58.1112210  25.3289810  23.5125880  57.2797090  25.0738520  23.9122390
  58.7193190  25.4000580  24.2483800  58.0913470  29.3629900  23.7083900
  58.3941510  28.4727640  23.5294120  58.8357060  29.9200120  23.4806150
  56.5204160  20.2891700  17.2968270  55.6320860  20.6307670  17.1948150
  56.8045350  20.0892020  16.4049100  54.4837170  22.8897350  23.1807970
  55.0553280  22.1219550  23.1811610  54.4838710  23.1886110  22.2714580
  64.3417120  31.7088200  21.0353240  63.7228560  32.1645700  20.4647680
  65.1968900  31.8639660  20.6342940  63.5355370  27.6927190  22.6420280
  63.4663650  26.7517130  22.4809410  64.2975230  27.7828600  23.2142850
  55.7262040  18.2981710  24.9676900  55.5464880  17.4007460  25.2479660
  55.3242120  18.8453580  25.6423850  64.5660540  20.4997570  22.8689210
  64.9425360  19.6269450  22.7562880  64.4680050  20.8356270  21.9779650
  58.6965550  18.8723200  18.3306650  58.8032300  19.7726930  18.6375410
  57.7857910  18.8241170  18.0401300  56.3448710  20.7942210  23.5759240
  57.0258820  21.0580580  24.1946640  56.0296760  19.9543080  23.9097250
  60.5373280  21.8409570  22.6631830  61.0451500  22.3390540  23.3036850
  61.0686520  21.0644770  22.4871190  58.8209380  16.4808130  26.9295250
  58.8227820  16.9980520  26.1241150  57.9913690  16.0038310  26.9065180
  65.2080470  26.5927440  18.4285150  64.5897740  27.0576890  17.8647870
  65.7203720  27.2854920  18.8454660  60.0712230  26.1203310  25.1068750
  59.7381610  26.7472230  25.7489820  60.2478910  26.6465190  24.3270420
  58.5024710  18.1918090  24.9365700  58.8441520  19.0360140  24.6419570
  57.5640520  18.3401830  25.0531040  59.2831330  28.0884110  26.9217930
  59.9005330  28.7635190  26.6402380  58.4224450  28.4972090  26.8305430
  54.5763670  27.2783970  15.8024780  54.1991650  27.7671070  15.0709680
  54.8336740  27.9509250  16.4331310  62.1852600  15.6800360  21.2610290
  62.4927580  15.1247250  20.5445790  61.2553300  15.8144820  21.0783280
  67.7367660  31.3967650  23.5517750  67.7494820  30.9929940  22.6840010
  67.1842880  32.1714940  23.4479180  67.1353100  26.2997490  24.8800360
  67.5521890  26.0857600  24.0453820  67.8592920  26.5570280  25.4508980
  64.5733360  23.7449190  17.9970410  63.6462640  23.6786570  18.2258880
  64.7258180  24.6829320  17.8825650  64.5602440  20.0166190  14.9937570
  63.6206110  20.1780150  15.0790030  64.8785700  20.7351870  14.4473560
  68.6030650  25.3069490  18.5005660  67.9843070  24.9689040  17.8531960
  68.5855100  24.6629250  19.2084850  68.0457210  21.4854030  25.9171470
  67.6328390  22.3107740  26.1711460  67.3133160  20.8999070  25.7247830
  60.1790000  24.2713930  20.7790140  59.7747000  23.5591180  20.2836040
  60.2653120  23.9267170  21.6678180  60.6471700  27.9581490  22.9429350
  60.3499990  27.3526960  22.2637130  61.5971520  27.9958800  22.8318710
  58.8918620  21.0457140  24.5589180  59.4433210  21.1552480  23.7842430
  59.4062130  21.4194740  25.2744410  68.7357310  31.5313360  26.6052450
  68.2587870  32.3385550  26.4125060  68.0519100  30.8791690  26.7578660
  59.7390130  27.6963180  29.5937150  58.8418660  27.9203150  29.8410550
  59.7643000  27.8198120  28.6448550  66.7795350  24.5456300  15.5078410
  67.2188630  23.7078730  15.3616230  67.4923770  25.1785700  15.5942550
  58.5661350  24.5676500  28.1694520  58.4269120  25.4399300  28.5381920
  57.6842710  24.2249310  28.0242460  64.8890730  29.4852370  19.4759650
  65.3286640  30.2276700  19.0615040  64.8277620  29.7278940  20.3998610
  60.3641700  30.5098200  30.3779670  60.3357130  30.9141150  29.5108100
  60.2006670  29.5808560  30.2151270  56.8794630  23.1658910  18.2796790
  56.7592230  23.8921000  17.6678060  56.5695520  22.3961820  17.8024700
  54.5180000  26.3374050  24.0865430  54.5960420  26.4722820  23.1421150
  55.1321680  25.6289940  24.2793550  55.7627630  28.0374240  20.4971610
  55.3555710  28.1788830  19.6425210  56.6540640  27.7534400  20.2942820
  65.5806510  32.1866150  27.4038660  66.0951180  32.0974160  28.2061090
  64.7375590  32.5325850  27.6966570  67.5560910  32.4721490  16.8322660
  67.3962050  32.1824430  17.7304490  67.3907620  31.6961620  16.2967890
  60.0349290  32.2520020  18.6094280  59.8591770  31.3355560  18.3962080
  59.1805030  32.6107310  18.8492080  67.2587040  29.9809050  15.3920660
  66.5652200  29.9786340  14.7322940  68.0009900  29.5568370  14.9614830
  66.8236970  31.6071760  19.4669150  67.2793920  30.8261140  19.7807770
  67.1629490  32.3178580  20.0110330  54.5739520  27.3788220  26.6259890
  54.7370560  26.9093580  25.8079260  55.0391970  26.8711780  27.2908730
  59.3458290  16.5093980  21.6620460  58.9026440  17.2903520  21.3304980
  59.9043280  16.8323870  22.3691400  63.6328100  19.3762500  27.2655780
  63.1707470  19.5845520  28.0775720  63.2306210  18.5621850  26.9626450
  68.6332610  20.5971450  28.3952440  67.7826200  20.2977200  28.7161510
  68.4734400  20.8413460  27.4836260  65.7282320  22.0973200  30.4951230
  66.0535730  21.2636950  30.1553460  66.5162650  22.6201720  30.6429560
  62.4617110  16.1304680  16.5426290  61.8371290  16.1264550  17.2679600
  62.3747230  15.2635640  16.1462260  61.3834190  17.0541310  23.5210060
  61.6806520  17.9604140  23.4402080  61.9319750  16.5660090  22.9069630
  59.1372510  21.6327550  19.3901710  58.9113430  21.4164720  20.2948330
  58.3565040  22.0656010  19.0447680  66.3670270  21.6390920  17.9892360
  65.7679160  22.3626720  17.8055980  66.9149880  21.5767700  17.2068810
  61.5771720  22.5313130  30.0561980  61.4815320  21.5907860  29.9062380
  62.4203700  22.7528200  29.6610050  64.9735140  20.2754460  20.0195640
  65.3664710  20.5926660  19.2064330  65.3351990  19.3966340  20.1340160
  56.7082260  18.9426800  28.2095760  56.3145650  19.7902010  28.4168540
  56.0200660  18.3053170  28.4004400  63.2827310  19.0261770  31.2792500
  62.5925630  18.8333970  31.9138590  64.0259610  19.3096410  31.8116800
  54.0099310  16.8655260  22.2425840  53.7212360  17.4358120  22.9550820
  54.7545070  16.3859710  22.6057070  54.1969540  20.8075380  13.4528560
  54.1144210  21.7506140  13.5943550  53.8452600  20.6650290  12.5740910
  65.5590280  22.8660210  24.1146420  64.8271400  23.3747020  24.4636520
  65.1614620  22.0490190  23.8135200  61.9967670  19.5414410  22.5198910
  62.0003730  19.1004360  21.6703450  62.8918790  19.8631740  22.6270730
  57.8470050  19.4240900  21.4793120  57.5070100  19.9016130  22.2360170
  57.0847370  18.9706020  21.1194220  62.0587820  20.5426490  15.5105670
  62.1800640  20.5012970  16.4591490  61.6736330  21.4050640  15.3552400
  66.0216190  18.3193890  23.5269360  66.0388930  18.7702540  24.3711210
  65.7731770  17.4199530  23.7402800  61.0709320  22.8527630  14.9088970
  60.5026220  22.4045880  14.2824880  61.7798320  23.2120410  14.3754120
  56.1478500  26.7539650  28.7855700  55.7633290  26.1133320  29.3838660
  56.4590690  27.4575770  29.3550430  62.2975640  23.6016190  24.2664320
  62.6645770  23.1274760  25.0125660  62.1080700  24.4757760  24.6072660
  55.1616130  18.3459880  20.3957790  54.8763050  17.9815550  21.2336410
  55.0994990  17.6140340  19.7820930  60.0875010  22.6424830  26.5848530
  59.7832080  23.5216810  26.8098890  61.0421470  22.7024620  26.6205970
  58.6156800  26.8485820  17.1815380  57.8419060  26.3083440  17.0214100
  59.3451430  26.3292430  16.8433140  64.8354720  17.2389140  17.1171160
  64.0219330  16.7402310  17.0416470  64.6416670  18.0787390  16.7007510
  64.7563580  25.9160240  28.8610770  64.6900890  24.9955910  28.6068360
  64.1268720  26.0135680  29.5755410  67.5503110  21.6108790  15.4133320
  68.4382730  21.9226020  15.2384660  67.5208200  20.7381040  15.0213900
  58.6594200  26.5166200  20.8194190  59.1772870  25.7134460  20.7651080
  58.2078220  26.4545340  21.6611020  63.5463700  27.7832480  16.0921490
  63.8879400  28.5274710  15.5964810  62.7176410  28.0963600  16.4546320
  56.1438740  23.4827570  27.7319890  55.7853680  24.1481420  28.3193230
  55.8493300  22.6511120  28.1032510  59.3451860  23.9411810  30.6159440
  59.0452000  24.0868990  29.7187260  60.1163100  23.3817100  30.5232830
  64.6880310  28.7380810  28.6114570  64.7024850  27.8061770  28.3933480
  63.9805410  28.8240570  29.2504340  66.4291110  27.1048320  21.4567000
  66.7814930  26.5076450  20.7968370  65.5453440  26.7792550  21.6275250
  62.5154390  27.8646010  18.8637410  63.2025520  28.4115220  19.2445000
  61.7286810  28.4086740  18.8987020  54.6546790  23.4818830  14.3554490
  55.5241640  23.7643630  14.6390410  54.1637110  24.2954700  14.2403300
  61.8181600  24.8692040  18.4762770  62.2744380  25.6797290  18.7022960
  61.4669810  24.5515180  19.3081260  64.1214210  30.3798380  25.7055070
  64.7656430  30.5857760  26.3828490  64.4843650  29.6186780  25.2525920
  57.7193380  15.2129690  18.9485290  57.5908010  15.2047590  19.8970210
  56.8955400  15.5512780  18.5976300  65.3946290  28.3830730  24.4232520
  66.0368520  27.6823890  24.5364690  65.9195640  29.1629170  24.2429410
  67.1683910  29.1825630  27.6268580  67.5040150  29.7692320  28.3046500
  66.2484250  29.0518340  27.8566370  55.0218040  32.6946210  14.9216120
  55.3815680  33.2935550  14.2673390  54.8810380  33.2406100  15.6951150
  54.7187310  16.9720810  28.4091990  54.0045830  17.1717730  29.0144600
  55.1382350  16.1960380  28.7806790  62.9972490  29.2316960  30.7956640
  62.6769360  28.5126200  31.3402330  62.3230850  29.9072030  30.8692700
  61.0386660  30.0777410  15.7389790  61.0296760  30.8107100  15.1234300
  60.1185020  29.8308990  15.8316750  56.6393300  25.2992300  16.4836550
  56.0321250  26.0391200  16.4931850  57.1142650  25.3891660  15.6574750
  66.2126090  19.4643120  26.1593440  66.5806910  18.6438330  26.4873010
  65.3524290  19.5245010  26.5749090  64.0246260  30.1405650  14.4014980
  64.1258240  29.9369640  13.4716960  63.1248000  29.8863930  14.6062760
  61.5472150  20.6986010  18.3838880  60.8388300  21.1672350  18.8252490
  61.8316630  20.0408020  19.0184070  63.1728080  22.1182710  26.3831410
  63.6713330  22.5928530  27.0483260  63.3151030  21.1946230  26.5901440
  65.5787580  17.4236670  19.8234670  65.4555360  17.4422800  18.8744180
  66.5272140  17.4715610  19.9433070  62.6664370  32.6591970  19.0962650
  62.9205870  32.6213360  18.1742020  61.7176850  32.5325300  19.0890900
  59.7507170  19.0071090  15.7589590  60.5997700  19.4441240  15.6929780
  59.3838440  19.3191350  16.5861650  58.6498590  25.2603450  14.2325120
  59.4161860  25.1484810  14.7950550  58.7273280  24.5641420  13.5801890
  57.3445350  22.6928520  14.9158010  57.4248940  21.7456030  15.0275410
  58.2365100  23.0235400  15.0218670  58.1460060  32.8423910  22.0192550
  58.8822540  32.2939370  22.2901120  58.5300980  33.7079920  21.8798540
  55.0305540  28.9097480  17.8934060  54.1045320  29.1518620  17.8839470
  55.4961970  29.7371740  17.7718810  61.2562370  32.0154220  13.8418120
  62.0490980  32.3043050  13.3899910  60.7366720  31.5846390  13.1630600
  65.9882970  28.1349850  31.1553540  65.3821130  28.1581450  30.4149290
  65.6837080  27.4032890  31.6920790  67.4183340  31.8630140  29.7662950
  68.3705090  31.7788160  29.7163190  67.2711560  32.5271850  30.4396740
  54.8716150  24.5143440  30.1514180  55.3755170  23.9350720  30.7230410
  54.1323570  24.7983670  30.6890550  61.7739770  27.2357630  13.7060470
  61.6690410  26.6209980  14.4321850  61.6063990  26.7123520  12.9223480
  61.9254090  25.9214430  29.6849700  61.1599760  26.4899430  29.6004370
  62.1070050  25.6290640  28.7917930  65.0142500  26.2977660  14.3102460
  64.4652600  26.7446960  14.9545200  65.6361760  25.7926910  14.8340130
  56.9039230  22.6573030  31.0464250  56.9444570  22.3586900  31.9549480
  57.7584730  23.0580640  30.8871770  60.6817620  25.2568580  16.2067760
  61.1034040  25.0908450  17.0499150  60.8068460  24.4468810  15.7122900
  58.8445040  21.2365130  29.0138740  58.3141500  20.7456080  28.3862080
  59.5133110  21.6649330  28.4796670  63.1945260  24.2806190  13.4544860
  63.7150920  23.5655210  13.0886010  63.8413660  24.9192060  13.7545370
  67.7423100  25.7034590  28.7779930  68.1564120  25.8579670  29.6270350
  66.8074100  25.8289810  28.9405710  68.2145270  23.0430750  30.7819080
  68.7966040  22.2883070  30.6939560  68.3907040  23.5738190  30.0050560
  59.3317340  18.2027500  29.0936030  59.2374210  17.5848250  28.3686900
  58.7514730  18.9293790  28.8665940  62.0978780  16.7600740  26.1263420
  61.6496080  16.7825000  25.2808970  61.4643980  16.3619760  26.7233720
  62.5038330  25.6555070  26.7475860  62.9226440  26.4987800  26.5752100
  61.5846960  25.7927110  26.5182640  64.8402230  23.3871250  28.1313700
  64.9598440  22.7912390  28.8708540  65.6996230  23.4240940  27.7115000
  67.1790130  23.9408440  26.7076210  66.6525350  24.4651060  26.1041350
  67.5221470  24.5735830  27.3385940  59.5776520  21.3301810  13.1525920
  59.3765580  20.4669170  13.5139260  59.4068570  21.2435170  12.2147520
  60.3545750  31.9608080  27.8633590  59.8166840  32.6854140  27.5442290
  60.6079710  31.4838420  27.0730930  61.6071000  19.9292600  29.3889520
  62.1970690  19.6208450  30.0767340  60.7891240  19.4572350  29.5449420
  66.4264430  19.5458410  29.6222540  65.7379950  18.8839950  29.5572530
  67.1470450  19.0996680  30.0671000  67.0564830  16.1410040  15.6812800
  67.3367120  15.2977940  16.0372220  66.2830560  16.3733150  16.1951550
  58.3759320  18.4302430  13.1403800  58.6785220  18.4369860  12.2322950
  59.1153910  18.0800290  13.6371460  63.2107960  33.1959290  28.1220240
  63.1366660  34.0994430  28.4292610  62.3086800  32.8771190  28.0942310
  61.5944250  17.3737050  14.1260000  61.2466250  16.6961040  13.5462450
  61.7957020  16.9126560  14.9403390  63.7593290  32.3617800  15.7446600
  64.6544080  32.7002770  15.7665360  63.7910920  31.6397210  15.1170880
  57.3989450  27.7344850  13.9733600  57.8364320  28.2774520  14.6291180
  57.8837180  26.9091800  13.9829940  54.6135250  30.5233880  21.4253860
  54.9438260  29.6554940  21.1932500  55.0426250  30.7292400  22.2558820
  59.2097170  28.8542890  19.0855830  58.9092710  28.7307860  19.9859740
  59.1034660  27.9951480  18.6771560  55.1025460  31.3904470  24.1635490
  54.6656450  31.5705270  24.9959640  55.6703140  32.1479090  24.0217210
  54.9349890  23.9024700  20.5224370  54.2798730  23.6336340  19.8784070
  55.7727840  23.7929180  20.0726350  67.8840330  18.6965990  14.7442860
  68.3025210  18.5096970  13.9039520  67.5776390  17.8445040  15.0545790
  55.9725820  24.2877270  25.0627710  56.3398860  24.2004670  25.9423730
  55.4036640  23.5243820  24.9634570  55.5241820  21.1986360  28.9686130
  54.6297870  21.1653120  29.3079840  56.0639370  21.3973150  29.7337380
  54.1487970  21.1123630  16.4649700  53.2452050  21.3753830  16.2901360
  54.6328590  21.3834800  15.6849660  56.6915180  20.1689170  14.3744080
  57.4006880  19.7472390  13.8891360  55.9755120  20.2364400  13.7427430
  56.3389340  16.2228500  13.4146730  57.0617470  16.7637440  13.7327950
  56.6113860  15.9491920  12.5388270  56.0281530  15.4734690  23.3169350
  56.6757720  14.9232070  22.8764510  56.4483370  15.7277840  24.1385160
  55.7813530  15.6290360  26.0594670  55.4328350  16.0854180  26.8252850
  55.4501230  14.7347490  26.1417100  61.0883930  30.3569550  25.8257580
  60.8475290  30.6244110  24.9388100  62.0286570  30.5275280  25.8808440
  63.2938350  16.8202240  29.5814090  63.2327240  17.4124070  30.3309500
  64.2338730  16.7128200  29.4364350  65.9312910  16.4772300  29.2206380
  66.5453320  16.7951590  28.5587460  66.4762470  15.9920890  29.8402240
  56.4534170  15.1566560  29.3345440  57.0017160  14.9754610  28.5711550
  56.5189480  14.3660670  29.8701750  57.2265930  31.7472210  27.3445640
  56.6326250  31.6156910  28.0835680  57.2189770  30.9110350  26.8787740
  66.6720950  15.0404440  25.5475670  65.7980790  15.3739550  25.3448600
  66.5631700  14.5677620  26.3727540  67.5792930  17.2475310  26.9317390
  67.2506290  16.4327070  26.5519120  68.5275230  17.2045120  26.8083080
  56.8578160  29.1130590  26.2953680  56.1312220  28.4935880  26.2279630
  56.9187310  29.5071200  25.4251760  60.4623260  31.3275590  23.0803090
  60.9788280  30.7162950  22.5551350  61.1120640  31.8304370  23.5714100
  63.2018760  32.2184080  23.9072070  63.4896570  31.9638380  23.0305080
  63.7141980  31.6661440  24.4977640  64.4195770  15.9574280  24.4868580
  63.6367560  16.4319780  24.7665340  64.1258700  15.0529110  24.3781760
  55.1408160  32.4304980  19.5050440  54.9730200  31.7975660  20.2032330
  54.2742670  32.6364380  19.1544630  55.7636180  16.2621760  17.0082300
  56.5215540  16.3750640  16.4346330  55.3013350  17.0990960  16.9625730
  62.3049990  18.3761030  19.9984610  61.4924500  18.0017920  19.6580490
  62.8091630  17.6206110  20.3005800  66.8074970  15.0403480  21.2367680
  67.4104340  15.6123690  21.7116200  66.0667960  15.6042920  21.0141580
  56.7470860  31.1238210  16.9500580  56.2218480  31.5046240  16.2462540
  56.6715440  31.7488980  17.6710290  58.1361330  16.7885810  15.5484270
  58.6654090  16.0015610  15.4192220  58.7689650  17.4677000  15.7819800
  60.3299170  16.5260950  18.6029660  59.7001910  15.8248260  18.7699790
  59.7904310  17.2865080  18.3862820  63.2691120  33.1400180  31.2740270
  64.1958430  32.9044450  31.3176230  63.2541550  33.9672180  30.7926300
  60.4554730  15.8044930  31.0382150  60.1739000  16.3078530  30.2742970
  60.8374430  15.0066680  30.6724280  59.3463830  33.0720590  15.8249830
  60.0782650  32.7879870  15.2773720  59.6057500  32.8333870  16.7149210
  58.5078620  29.1885320  15.8296160  57.8787500  29.6570420  16.3781990
  58.6226450  28.3434540  16.2642350  67.0570190  15.2198510  31.6162620
  66.9435640  15.5393120  32.5114140  67.8739930  15.6211020  31.3199900
  64.0946380  25.0170000   3.8606630  63.3188480  24.5370440   4.1505200
  64.7459310  24.3375650   3.6862790  58.1112210  25.3289810   4.7382390
  57.2797090  25.0738520   5.1378900  58.7193190  25.4000580   5.4740310
  58.0913470  29.3629900   4.9340410  58.3941510  28.4727640   4.7550630
  58.8357060  29.9200120   4.7062660  54.4837170  22.8897350   4.4064480
  55.0553280  22.1219550   4.4068120  54.4838710  23.1886110   3.4971090
  64.3417120  31.7088200   2.2609750  63.7228560  32.1645700   1.6904190
  65.1968900  31.8639660   1.8599450  63.5355370  27.6927190   3.8676790
  63.4663650  26.7517130   3.7065920  64.2975230  27.7828600   4.4399360
  55.7262040  18.2981710   6.1933410  55.5464880  17.4007460   6.4736170
  55.3242120  18.8453580   6.8680360  64.5660540  20.4997570   4.0945720
  64.9425360  19.6269450   3.9819390  64.4680050  20.8356270   3.2036160
  56.3448710  20.7942210   4.8015750  57.0258820  21.0580580   5.4203150
  56.0296760  19.9543080   5.1353760  60.5373280  21.8409570   3.8888340
  61.0451500  22.3390540   4.5293360  61.0686520  21.0644770   3.7127700
  58.8209380  16.4808130   8.1551760  58.8227820  16.9980520   7.3497660
  57.9913690  16.0038310   8.1321690  60.0712230  26.1203310   6.3325260
  59.7381610  26.7472230   6.9746330  60.2478910  26.6465190   5.5526930
  58.5024710  18.1918090   6.1622210  58.8441520  19.0360140   5.8676080
  57.5640520  18.3401830   6.2787550  59.2831330  28.0884110   8.1474440
  59.9005330  28.7635190   7.8658890  58.4224450  28.4972090   8.0561940
  62.1852600  15.6800360   2.4866800  62.4927580  15.1247250   1.7702300
  61.2553300  15.8144820   2.3039790  67.7367660  31.3967650   4.7774260
  67.7494820  30.9929940   3.9096520  67.1842880  32.1714940   4.6735690
  67.1353100  26.2997490   6.1056870  67.5521890  26.0857600   5.2710330
  67.8592920  26.5570280   6.6765490  68.0457210  21.4854030   7.1427980
  67.6328390  22.3107740   7.3967970  67.3133160  20.8999070   6.9504340
  60.6471700  27.9581490   4.1685860  60.3499990  27.3526960   3.4893640
  61.5971520  27.9958800   4.0575220  58.8918620  21.0457140   5.7845690
  59.4433210  21.1552480   5.0098940  59.4062130  21.4194740   6.5000920
  68.7357310  31.5313360   7.8308960  68.2587870  32.3385550   7.6381570
  68.0519100  30.8791690   7.9835170  59.7390130  27.6963180  10.8193660
  58.8418660  27.9203150  11.0667060  59.7643000  27.8198120   9.8705060
  58.5661350  24.5676500   9.3951030  58.4269120  25.4399300   9.7638430
  57.6842710  24.2249310   9.2498970  60.3641700  30.5098200  11.6036180
  60.3357130  30.9141150  10.7364610  60.2006670  29.5808560  11.4407780
  54.5180000  26.3374050   5.3121940  54.5960420  26.4722820   4.3677660
  55.1321680  25.6289940   5.5050060  65.5806510  32.1866150   8.6295170
  66.0951180  32.0974160   9.4317600  64.7375590  32.5325850   8.9223080
  54.5739520  27.3788220   7.8516400  54.7370560  26.9093580   7.0335770
  55.0391970  26.8711780   8.5165240  59.3458290  16.5093980   2.8876970
  58.9026440  17.2903520   2.5561490  59.9043280  16.8323870   3.5947910
  63.6328100  19.3762500   8.4912290  63.1707470  19.5845520   9.3032230
  63.2306210  18.5621850   8.1882960  68.6332610  20.5971450   9.6208950
  67.7826200  20.2977200   9.9418020  68.4734400  20.8413460   8.7092770
  65.7282320  22.0973200  11.7207740  66.0535730  21.2636950  11.3809970
  66.5162650  22.6201720  11.8686070  61.3834190  17.0541310   4.7466570
  61.6806520  17.9604140   4.6658590  61.9319750  16.5660090   4.1326140
  61.5771720  22.5313130  11.2818490  61.4815320  21.5907860  11.1318890
  62.4203700  22.7528200  10.8866560  56.7082260  18.9426800   9.4352270
  56.3145650  19.7902010   9.6425050  56.0200660  18.3053170   9.6260910
  63.2827310  19.0261770  12.5049010  62.5925630  18.8333970  13.1395100
  64.0259610  19.3096410  13.0373310  54.0099310  16.8655260   3.4682350
  53.7212360  17.4358120   4.1807330  54.7545070  16.3859710   3.8313580
  65.5590280  22.8660210   5.3402930  64.8271400  23.3747020   5.6893030
  65.1614620  22.0490190   5.0391710  61.9967670  19.5414410   3.7455420
  62.0003730  19.1004360   2.8959960  62.8918790  19.8631740   3.8527240
  57.8470050  19.4240900   2.7049630  57.5070100  19.9016130   3.4616680
  57.0847370  18.9706020   2.3450730  66.0216190  18.3193890   4.7525870
  66.0388930  18.7702540   5.5967720  65.7731770  17.4199530   4.9659310
  56.1478500  26.7539650  10.0112210  55.7633290  26.1133320  10.6095170
  56.4590690  27.4575770  10.5806940  62.2975640  23.6016190   5.4920830
  62.6645770  23.1274760   6.2382170  62.1080700  24.4757760   5.8329170
  60.0875010  22.6424830   7.8105040  59.7832080  23.5216810   8.0355400
  61.0421470  22.7024620   7.8462480  64.7563580  25.9160240  10.0867280
  64.6900890  24.9955910   9.8324870  64.1268720  26.0135680  10.8011920
  58.6594200  26.5166200   2.0450700  59.1772870  25.7134460   1.9907590
  58.2078220  26.4545340   2.8867530  56.1438740  23.4827570   8.9576400
  55.7853680  24.1481420   9.5449740  55.8493300  22.6511120   9.3289020
  59.3451860  23.9411810  11.8415950  59.0452000  24.0868990  10.9443770
  60.1163100  23.3817100  11.7489340  64.6880310  28.7380810   9.8371080
  64.7024850  27.8061770   9.6189990  63.9805410  28.8240570  10.4760850
  66.4291110  27.1048320   2.6823510  66.7814930  26.5076450   2.0224880
  65.5453440  26.7792550   2.8531760  64.1214210  30.3798380   6.9311580
  64.7656430  30.5857760   7.6085000  64.4843650  29.6186780   6.4782430
  65.3946290  28.3830730   5.6489030  66.0368520  27.6823890   5.7621200
  65.9195640  29.1629170   5.4685920  67.1683910  29.1825630   8.8525090
  67.5040150  29.7692320   9.5303010  66.2484250  29.0518340   9.0822880
  54.7187310  16.9720810   9.6348500  54.0045830  17.1717730  10.2401110
  55.1382350  16.1960380  10.0063300  55.0059900  30.9601070  10.6215030
  55.1151020  30.0195810  10.4810420  54.3540460  31.2255820   9.9728760
  62.9972490  29.2316960  12.0213150  62.6769360  28.5126200  12.5658840
  62.3230850  29.9072030  12.0949210  66.2126090  19.4643120   7.3849950
  66.5806910  18.6438330   7.7129520  65.3524290  19.5245010   7.8005600
  63.1728080  22.1182710   7.6087920  63.6713330  22.5928530   8.2739770
  63.3151030  21.1946230   7.8157950  58.1460060  32.8423910   3.2449060
  58.8822540  32.2939370   3.5157630  58.5300980  33.7079920   3.1055050
  57.1518340  32.0269980  12.4334640  57.9531070  32.3482030  12.8470040
  56.6370160  31.6665560  13.1554550  65.9882970  28.1349850  12.3810050
  65.3821130  28.1581450  11.6405800  65.6837080  27.4032890  12.9177300
  67.4183340  31.8630140  10.9919460  68.3705090  31.7788160  10.9419700
  67.2711560  32.5271850  11.6653250  54.8716150  24.5143440  11.3770690
  55.3755170  23.9350720  11.9486920  54.1323570  24.7983670  11.9147060
  61.9254090  25.9214430  10.9106210  61.1599760  26.4899430  10.8260880
  62.1070050  25.6290640  10.0174440  56.9039230  22.6573030  12.2720760
  56.9444570  22.3586900  13.1805990  57.7584730  23.0580640  12.1128280
  58.8445040  21.2365130  10.2395250  58.3141500  20.7456080   9.6118590
  59.5133110  21.6649330   9.7053180  67.7423100  25.7034590  10.0036440
  68.1564120  25.8579670  10.8526860  66.8074100  25.8289810  10.1662220
  68.2145270  23.0430750  12.0075590  68.7966040  22.2883070  11.9196070
  68.3907040  23.5738190  11.2307070  59.3317340  18.2027500  10.3192540
  59.2374210  17.5848250   9.5943410  58.7514730  18.9293790  10.0922450
  62.0978780  16.7600740   7.3519930  61.6496080  16.7825000   6.5065480
  61.4643980  16.3619760   7.9490230  62.5038330  25.6555070   7.9732370
  62.9226440  26.4987800   7.8008610  61.5846960  25.7927110   7.7439150
  64.8402230  23.3871250   9.3570210  64.9598440  22.7912390  10.0965050
  65.6996230  23.4240940   8.9371510  67.1790130  23.9408440   7.9332720
  66.6525350  24.4651060   7.3297860  67.5221470  24.5735830   8.5642450
  60.3545750  31.9608080   9.0890100  59.8166840  32.6854140   8.7698800
  60.6079710  31.4838420   8.2987440  61.6071000  19.9292600  10.6146030
  62.1970690  19.6208450  11.3023850  60.7891240  19.4572350  10.7705930
  66.4264430  19.5458410  10.8479050  65.7379950  18.8839950  10.7829040
  67.1470450  19.0996680  11.2927510  63.2107960  33.1959290   9.3476750
  63.1366660  34.0994430   9.6549120  62.3086800  32.8771190   9.3198820
  54.6135250  30.5233880   2.6510370  54.9438260  29.6554940   2.4189010
  55.0426250  30.7292400   3.4815330  55.1025460  31.3904470   5.3892000
  54.6656450  31.5705270   6.2216150  55.6703140  32.1479090   5.2473720
  55.9725820  24.2877270   6.2884220  56.3398860  24.2004670   7.1680240
  55.4036640  23.5243820   6.1891080  55.5241820  21.1986360  10.1942640
  54.6297870  21.1653120  10.5336350  56.0639370  21.3973150  10.9593890
  56.0281530  15.4734690   4.5425860  56.6757720  14.9232070   4.1021020
  56.4483370  15.7277840   5.3641670  55.7813530  15.6290360   7.2851180
  55.4328350  16.0854180   8.0509360  55.4501230  14.7347490   7.3673610
  57.3877900  28.8009960  11.4504370  57.3447530  28.4302870  12.3318830
  57.5188910  29.7387530  11.5906190  61.0883930  30.3569550   7.0514090
  60.8475290  30.6244110   6.1644610  62.0286570  30.5275280   7.1064950
  63.2938350  16.8202240  10.8070600  63.2327240  17.4124070  11.5566010
  64.2338730  16.7128200  10.6620860  65.9312910  16.4772300  10.4462890
  66.5453320  16.7951590   9.7843970  66.4762470  15.9920890  11.0658750
  56.4534170  15.1566560  10.5601950  57.0017160  14.9754610   9.7968060
  56.5189480  14.3660670  11.0958260  57.2265930  31.7472210   8.5702150
  56.6326250  31.6156910   9.3092190  57.2189770  30.9110350   8.1044250
  66.6720950  15.0404440   6.7732180  65.7980790  15.3739550   6.5705110
  66.5631700  14.5677620   7.5984050  67.5792930  17.2475310   8.1573900
  67.2506290  16.4327070   7.7775630  68.5275230  17.2045120   8.0339590
  56.8578160  29.1130590   7.5210190  56.1312220  28.4935880   7.4536140
  56.9187310  29.5071200   6.6508270  60.4623260  31.3275590   4.3059600
  60.9788280  30.7162950   3.7807860  61.1120640  31.8304370   4.7970610
  63.2018760  32.2184080   5.1328580  63.4896570  31.9638380   4.2561590
  63.7141980  31.6661440   5.7234150  64.4195770  15.9574280   5.7125090
  63.6367560  16.4319780   5.9921850  64.1258700  15.0529110   5.6038270
  66.8074970  15.0403480   2.4624190  67.4104340  15.6123690   2.9372710
  66.0667960  15.6042920   2.2398090  63.2691120  33.1400180  12.4996780
  64.1958430  32.9044450  12.5432740  63.2541550  33.9672180  12.0182810
  60.4554730  15.8044930  12.2638660  60.1739000  16.3078530  11.4999480
  60.8374430  15.0066680  11.8980790  67.0570190  15.2198510  12.8419130
  66.9435640  15.5393120  13.7370650  67.8739930  15.6211020  12.5456410
  65.9628340   4.4647490  58.3027830  65.8822390   3.5502100  58.0319540
  65.5492760   4.9614560  57.5967540  64.0946380   6.2426510  60.1837100
  63.3188480   5.7626950  60.4735670  64.7459310   5.5632160  60.0093260
  58.1112210   6.5546320  61.0612860  57.2797090   6.2995030  61.4609370
  58.7193190   6.6257090  61.7970780  58.0913470  10.5886410  61.2570880
  58.3941510   9.6984150  61.0781100  58.8357060  11.1456630  61.0293130
  54.4837170   4.1153860  60.7294950  55.0553280   3.3476060  60.7298590
  54.4838710   4.4142620  59.8201560  64.3417120  12.9344710  58.5840220
  63.7228560  13.3902210  58.0134660  65.1968900  13.0896170  58.1829920
  63.5355370   8.9183700  60.1907260  63.4663650   7.9773640  60.0296390
  64.2975230   9.0085110  60.7629830  60.5373280   3.0666080  60.2118810
  61.0451500   3.5647050  60.8523830  61.0686520   2.2901280  60.0358170
  65.2080470   7.8183950  55.9772130  64.5897740   8.2833400  55.4134850
  65.7203720   8.5111430  56.3941640  54.5763670   8.5040480  53.3511760
  54.1991650   8.9927580  52.6196660  54.8336740   9.1765760  53.9818290
  67.7367660  12.6224160  61.1004730  67.7494820  12.2186450  60.2326990
  67.1842880  13.3971450  60.9966160  64.5733360   4.9705700  55.5457390
  63.6462640   4.9043080  55.7745860  64.7258180   5.9085830  55.4312630
  68.6030650   6.5326000  56.0492640  67.9843070   6.1945550  55.4018940
  68.5855100   5.8885760  56.7571830  60.1790000   5.4970440  58.3277120
  59.7747000   4.7847690  57.8323020  60.2653120   5.1523680  59.2165160
  60.6471700   9.1838000  60.4916330  60.3499990   8.5783470  59.8124110
  61.5971520   9.2215310  60.3805690  66.7795350   5.7712810  53.0565390
  67.2188630   4.9335240  52.9103210  67.4923770   6.4042210  53.1429530
  64.8890730  10.7108880  57.0246630  65.3286640  11.4533210  56.6102020
  64.8277620  10.9535450  57.9485590  56.8794630   4.3915420  55.8283770
  56.7592230   5.1177510  55.2165040  56.5695520   3.6218330  55.3511680
  54.5180000   7.5630560  61.6352410  54.5960420   7.6979330  60.6908130
  55.1321680   6.8546450  61.8280530  55.7627630   9.2630750  58.0458590
  55.3555710   9.4045340  57.1912190  56.6540640   8.9790910  57.8429800
  67.5560910  13.6978000  54.3809640  67.3962050  13.4080940  55.2791470
  67.3907620  12.9218130  53.8454870  60.0349290  13.4776530  56.1581260
  59.8591770  12.5612070  55.9449060  59.1805030  13.8363820  56.3979060
  67.2587040  11.2065560  52.9407640  66.5652200  11.2042850  52.2809920
  68.0009900  10.7824880  52.5101810  66.8236970  12.8328270  57.0156130
  67.2793920  12.0517650  57.3294750  67.1629490  13.5435090  57.5597310
  59.1372510   2.8584060  56.9388690  58.9113430   2.6421230  57.8435310
  58.3565040   3.2912520  56.5934660  66.3670270   2.8647430  55.5379340
  65.7679160   3.5883230  55.3542960  66.9149880   2.8024210  54.7555790
  54.1969540   2.0331890  51.0015540  54.1144210   2.9762650  51.1430530
  53.8452600   1.8906800  50.1227890  62.0587820   1.7683000  53.0592650
  62.1800640   1.7269480  54.0078470  61.6736330   2.6307150  52.9039380
  61.0709320   4.0784140  52.4575950  60.5026220   3.6302390  51.8311860
  61.7798320   4.4376920  51.9241100  58.6156800   8.0742330  54.7302360
  57.8419060   7.5339950  54.5701080  59.3451430   7.5548940  54.3920120
  67.5503110   2.8365300  52.9620300  68.4382730   3.1482530  52.7871640
  67.5208200   1.9637550  52.5700880  58.6594200   7.7422710  58.3681170
  59.1772870   6.9390970  58.3138060  58.2078220   7.6801850  59.2098000
  63.5463700   9.0088990  53.6408470  63.8879400   9.7531220  53.1451790
  62.7176410   9.3220110  54.0033300  66.4291110   8.3304830  59.0053980
  66.7814930   7.7332960  58.3455350  65.5453440   8.0049060  59.1762230
  62.5154390   9.0902520  56.4124390  63.2025520   9.6371730  56.7931980
  61.7286810   9.6343250  56.4474000  54.6546790   4.7075340  51.9041470
  55.5241640   4.9900140  52.1877390  54.1637110   5.5211210  51.7890280
  61.8181600   6.0948550  56.0249750  62.2744380   6.9053800  56.2509940
  61.4669810   5.7771690  56.8568240  55.0218040  13.9202720  52.4703100
  55.3815680  14.5192060  51.8160370  54.8810380  14.4662610  53.2438130
  61.0386660  11.3033920  53.2876770  61.0296760  12.0363610  52.6721280
  60.1185020  11.0565500  53.3803730  56.6393300   6.5248810  54.0323530
  56.0321250   7.2647710  54.0418830  57.1142650   6.6148170  53.2061730
  64.0246260  11.3662160  51.9501960  64.1258240  11.1626150  51.0203940
  63.1248000  11.1120440  52.1549740  62.6664370  13.8848480  56.6449630
  62.9205870  13.8469870  55.7229000  61.7176850  13.7581810  56.6377880
  58.6498590   6.4859960  51.7812100  59.4161860   6.3741320  52.3437530
  58.7273280   5.7897930  51.1288870  57.3445350   3.9185030  52.4644990
  57.4248940   2.9712540  52.5762390  58.2365100   4.2491910  52.5705650
  58.1460060  14.0680420  59.5679530  58.8822540  13.5195880  59.8388100
  58.5300980  14.9336430  59.4285520  55.0305540  10.1353990  55.4421040
  54.1045320  10.3775130  55.4326450  55.4961970  10.9628250  55.3205790
  61.2562370  13.2410730  51.3905100  62.0490980  13.5299560  50.9386890
  60.7366720  12.8102900  50.7117580  61.7739770   8.4614140  51.2547450
  61.6690410   7.8466490  51.9808830  61.6063990   7.9380030  50.4710460
  65.0142500   7.5234170  51.8589440  64.4652600   7.9703470  52.5032180
  65.6361760   7.0183420  52.3827110  60.6817620   6.4825090  53.7554740
  61.1034040   6.3164960  54.5986130  60.8068460   5.6725320  53.2609880
  63.1945260   5.5062700  51.0031840  63.7150920   4.7911720  50.6372990
  63.8413660   6.1448570  51.3032350  59.5776520   2.5558320  50.7012900
  59.3765580   1.6925680  51.0626240  59.4068570   2.4691680  49.7634500
  63.7593290  13.5874310  53.2933580  64.6544080  13.9259280  53.3152340
  63.7910920  12.8653720  52.6657860  57.3989450   8.9601360  51.5220580
  57.8364320   9.5031030  52.1778160  57.8837180   8.1348310  51.5316920
  54.6135250  11.7490390  58.9740840  54.9438260  10.8811450  58.7419480
  55.0426250  11.9548910  59.8045800  59.2097170  10.0799400  56.6342810
  58.9092710   9.9564370  57.5346720  59.1034660   9.2207990  56.2258540
  54.9349890   5.1281210  58.0711350  54.2798730   4.8592850  57.4271050
  55.7727840   5.0185690  57.6213330  54.1487970   2.3380140  54.0136680
  53.2452050   2.6010340  53.8388340  54.6328590   2.6091310  53.2336640
  60.4623260  12.5532100  60.6290070  60.9788280  11.9419460  60.1038330
  61.1120640  13.0560880  61.1201080  55.1408160  13.6561490  57.0537420
  54.9730200  13.0232170  57.7519310  54.2742670  13.8620890  56.7031610
  56.7470860  12.3494720  54.4987560  56.2218480  12.7302750  53.7949520
  56.6715440  12.9745490  55.2197270  59.3463830  14.2977100  53.3736810
  60.0782650  14.0136380  52.8260700  59.6057500  14.0590380  54.2636190
  58.5078620  10.4141830  53.3783140  57.8787500  10.8826930  53.9268970
  58.6226450   9.5691050  53.8129330  65.9628340   4.4647490  39.5284340
  65.8822390   3.5502100  39.2576050  65.5492760   4.9614560  38.8224050
  64.0946380   6.2426510  41.4093610  63.3188480   5.7626950  41.6992180
  64.7459310   5.5632160  41.2349770  58.1112210   6.5546320  42.2869370
  57.2797090   6.2995030  42.6865880  58.7193190   6.6257090  43.0227290
  58.0913470  10.5886410  42.4827390  58.3941510   9.6984150  42.3037610
  58.8357060  11.1456630  42.2549640  54.4837170   4.1153860  41.9551460
  55.0553280   3.3476060  41.9555100  54.4838710   4.4142620  41.0458070
  64.3417120  12.9344710  39.8096730  63.7228560  13.3902210  39.2391170
  65.1968900  13.0896170  39.4086430  63.5355370   8.9183700  41.4163770
  63.4663650   7.9773640  41.2552900  64.2975230   9.0085110  41.9886340
  60.5373280   3.0666080  41.4375320  61.0451500   3.5647050  42.0780340
  61.0686520   2.2901280  41.2614680  65.2080470   7.8183950  37.2028640
  64.5897740   8.2833400  36.6391360  65.7203720   8.5111430  37.6198150
  60.0712230   7.3459820  43.8812240  59.7381610   7.9728740  44.5233310
  60.2478910   7.8721700  43.1013910  59.2831330   9.3140620  45.6961420
  59.9005330   9.9891700  45.4145870  58.4224450   9.7228600  45.6048920
  54.5763670   8.5040480  34.5768270  54.1991650   8.9927580  33.8453170
  54.8336740   9.1765760  35.2074800  67.7367660  12.6224160  42.3261240
  67.7494820  12.2186450  41.4583500  67.1842880  13.3971450  42.2222670
  67.1353100   7.5254000  43.6543850  67.5521890   7.3114110  42.8197310
  67.8592920   7.7826790  44.2252470  64.5733360   4.9705700  36.7713900
  63.6462640   4.9043080  37.0002370  64.7258180   5.9085830  36.6569140
  68.6030650   6.5326000  37.2749150  67.9843070   6.1945550  36.6275450
  68.5855100   5.8885760  37.9828340  68.0457210   2.7110540  44.6914960
  67.6328390   3.5364250  44.9454950  67.3133160   2.1255580  44.4991320
  60.1790000   5.4970440  39.5533630  59.7747000   4.7847690  39.0579530
  60.2653120   5.1523680  40.4421670  60.6471700   9.1838000  41.7172840
  60.3499990   8.5783470  41.0380620  61.5971520   9.2215310  41.6062200
  58.8918620   2.2713650  43.3332670  59.4433210   2.3808990  42.5585920
  59.4062130   2.6451250  44.0487900  68.7357310  12.7569870  45.3795940
  68.2587870  13.5642060  45.1868550  68.0519100  12.1048200  45.5322150
  59.7390130   8.9219690  48.3680640  58.8418660   9.1459660  48.6154040
  59.7643000   9.0454630  47.4192040  66.7795350   5.7712810  34.2821900
  67.2188630   4.9335240  34.1359720  67.4923770   6.4042210  34.3686040
  58.5661350   5.7933010  46.9438010  58.4269120   6.6655810  47.3125410
  57.6842710   5.4505820  46.7985950  64.8890730  10.7108880  38.2503140
  65.3286640  11.4533210  37.8358530  64.8277620  10.9535450  39.1742100
  60.3641700  11.7354710  49.1523160  60.3357130  12.1397660  48.2851590
  60.2006670  10.8065070  48.9894760  56.8794630   4.3915420  37.0540280
  56.7592230   5.1177510  36.4421550  56.5695520   3.6218330  36.5768190
  54.5180000   7.5630560  42.8608920  54.5960420   7.6979330  41.9164640
  55.1321680   6.8546450  43.0537040  55.7627630   9.2630750  39.2715100
  55.3555710   9.4045340  38.4168700  56.6540640   8.9790910  39.0686310
  65.5806510  13.4122660  46.1782150  66.0951180  13.3230670  46.9804580
  64.7375590  13.7582360  46.4710060  67.5560910  13.6978000  35.6066150
  67.3962050  13.4080940  36.5047980  67.3907620  12.9218130  35.0711380
  60.0349290  13.4776530  37.3837770  59.8591770  12.5612070  37.1705570
  59.1805030  13.8363820  37.6235570  67.2587040  11.2065560  34.1664150
  66.5652200  11.2042850  33.5066430  68.0009900  10.7824880  33.7358320
  66.8236970  12.8328270  38.2412640  67.2793920  12.0517650  38.5551260
  67.1629490  13.5435090  38.7853820  54.5739520   8.6044730  45.4003380
  54.7370560   8.1350090  44.5822750  55.0391970   8.0968290  46.0652220
  65.7282320   3.3229710  49.2694720  66.0535730   2.4893460  48.9296950
  66.5162650   3.8458230  49.4173050  59.1372510   2.8584060  38.1645200
  58.9113430   2.6421230  39.0691820  58.3565040   3.2912520  37.8191170
  66.3670270   2.8647430  36.7635850  65.7679160   3.5883230  36.5799470
  66.9149880   2.8024210  35.9812300  61.5771720   3.7569640  48.8305470
  61.4815320   2.8164370  48.6805870  62.4203700   3.9784710  48.4353540
  54.1969540   2.0331890  32.2272050  54.1144210   2.9762650  32.3687040
  53.8452600   1.8906800  31.3484400  65.5590280   4.0916720  42.8889910
  64.8271400   4.6003530  43.2380010  65.1614620   3.2746700  42.5878690
  62.0587820   1.7683000  34.2849160  62.1800640   1.7269480  35.2334980
  61.6736330   2.6307150  34.1295890  61.0709320   4.0784140  33.6832460
  60.5026220   3.6302390  33.0568370  61.7798320   4.4376920  33.1497610
  56.1478500   7.9796160  47.5599190  55.7633290   7.3389830  48.1582150
  56.4590690   8.6832280  48.1293920  62.2975640   4.8272700  43.0407810
  62.6645770   4.3531270  43.7869150  62.1080700   5.7014270  43.3816150
  60.0875010   3.8681340  45.3592020  59.7832080   4.7473320  45.5842380
  61.0421470   3.9281130  45.3949460  58.6156800   8.0742330  35.9558870
  57.8419060   7.5339950  35.7957590  59.3451430   7.5548940  35.6176630
  64.7563580   7.1416750  47.6354260  64.6900890   6.2212420  47.3811850
  64.1268720   7.2392190  48.3498900  67.5503110   2.8365300  34.1876810
  68.4382730   3.1482530  34.0128150  67.5208200   1.9637550  33.7957390
  58.6594200   7.7422710  39.5937680  59.1772870   6.9390970  39.5394570
  58.2078220   7.6801850  40.4354510  63.5463700   9.0088990  34.8664980
  63.8879400   9.7531220  34.3708300  62.7176410   9.3220110  35.2289810
  56.1438740   4.7084080  46.5063380  55.7853680   5.3737930  47.0936720
  55.8493300   3.8767630  46.8776000  59.3451860   5.1668320  49.3902930
  59.0452000   5.3125500  48.4930750  60.1163100   4.6073610  49.2976320
  64.6880310   9.9637320  47.3858060  64.7024850   9.0318280  47.1676970
  63.9805410  10.0497080  48.0247830  66.4291110   8.3304830  40.2310490
  66.7814930   7.7332960  39.5711860  65.5453440   8.0049060  40.4018740
  62.5154390   9.0902520  37.6380900  63.2025520   9.6371730  38.0188490
  61.7286810   9.6343250  37.6730510  54.6546790   4.7075340  33.1297980
  55.5241640   4.9900140  33.4133900  54.1637110   5.5211210  33.0146790
  61.8181600   6.0948550  37.2506260  62.2744380   6.9053800  37.4766450
  61.4669810   5.7771690  38.0824750  64.1214210  11.6054890  44.4798560
  64.7656430  11.8114270  45.1571980  64.4843650  10.8443290  44.0269410
  65.3946290   9.6087240  43.1976010  66.0368520   8.9080400  43.3108180
  65.9195640  10.3885680  43.0172900  67.1683910  10.4082140  46.4012070
  67.5040150  10.9948830  47.0789990  66.2484250  10.2774850  46.6309860
  55.0218040  13.9202720  33.6959610  55.3815680  14.5192060  33.0416880
  54.8810380  14.4662610  34.4694640  55.0059900  12.1857580  48.1702010
  55.1151020  11.2452320  48.0297400  54.3540460  12.4512330  47.5215740
  62.9972490  10.4573470  49.5700130  62.6769360   9.7382710  50.1145820
  62.3230850  11.1328540  49.6436190  61.0386660  11.3033920  34.5133280
  61.0296760  12.0363610  33.8977790  60.1185020  11.0565500  34.6060240
  56.6393300   6.5248810  35.2580040  56.0321250   7.2647710  35.2675340
  57.1142650   6.6148170  34.4318240  64.0246260  11.3662160  33.1758470
  64.1258240  11.1626150  32.2460450  63.1248000  11.1120440  33.3806250
  63.1728080   3.3439220  45.1574900  63.6713330   3.8185040  45.8226750
  63.3151030   2.4202740  45.3644930  62.6664370  13.8848480  37.8706140
  62.9205870  13.8469870  36.9485510  61.7176850  13.7581810  37.8634390
  58.6498590   6.4859960  33.0068610  59.4161860   6.3741320  33.5694040
  58.7273280   5.7897930  32.3545380  57.3445350   3.9185030  33.6901500
  57.4248940   2.9712540  33.8018900  58.2365100   4.2491910  33.7962160
  58.1460060  14.0680420  40.7936040  58.8822540  13.5195880  41.0644610
  58.5300980  14.9336430  40.6542030  55.0305540  10.1353990  36.6677550
  54.1045320  10.3775130  36.6582960  55.4961970  10.9628250  36.5462300
  57.1518340  13.2526490  49.9821620  57.9531070  13.5738540  50.3957020
  56.6370160  12.8922070  50.7041530  61.2562370  13.2410730  32.6161610
  62.0490980  13.5299560  32.1643400  60.7366720  12.8102900  31.9374090
  65.9882970   9.3606360  49.9297030  65.3821130   9.3837960  49.1892780
  65.6837080   8.6289400  50.4664280  67.4183340  13.0886650  48.5406440
  68.3705090  13.0044670  48.4906680  67.2711560  13.7528360  49.2140230
  54.8716150   5.7399950  48.9257670  55.3755170   5.1607230  49.4973900
  54.1323570   6.0240180  49.4634040  61.7739770   8.4614140  32.4803960
  61.6690410   7.8466490  33.2065340  61.6063990   7.9380030  31.6966970
  61.9254090   7.1470940  48.4593190  61.1599760   7.7155940  48.3747860
  62.1070050   6.8547150  47.5661420  65.0142500   7.5234170  33.0845950
  64.4652600   7.9703470  33.7288690  65.6361760   7.0183420  33.6083620
  56.9039230   3.8829540  49.8207740  56.9444570   3.5843410  50.7292970
  57.7584730   4.2837150  49.6615260  60.6817620   6.4825090  34.9811250
  61.1034040   6.3164960  35.8242640  60.8068460   5.6725320  34.4866390
  58.8445040   2.4621640  47.7882230  58.3141500   1.9712590  47.1605570
  59.5133110   2.8905840  47.2540160  63.1945260   5.5062700  32.2288350
  63.7150920   4.7911720  31.8629500  63.8413660   6.1448570  32.5288860
  67.7423100   6.9291100  47.5523420  68.1564120   7.0836180  48.4013840
  66.8074100   7.0546320  47.7149200  68.2145270   4.2687260  49.5562570
  68.7966040   3.5139580  49.4683050  68.3907040   4.7994700  48.7794050
  62.5038330   6.8811580  45.5219350  62.9226440   7.7244310  45.3495590
  61.5846960   7.0183620  45.2926130  64.8402230   4.6127760  46.9057190
  64.9598440   4.0168900  47.6452030  65.6996230   4.6497450  46.4858490
  67.1790130   5.1664950  45.4819700  66.6525350   5.6907570  44.8784840
  67.5221470   5.7992340  46.1129430  59.5776520   2.5558320  31.9269410
  59.3765580   1.6925680  32.2882750  59.4068570   2.4691680  30.9891010
  60.3545750  13.1864590  46.6377080  59.8166840  13.9110650  46.3185780
  60.6079710  12.7094930  45.8474420  63.2107960  14.4215800  46.8963730
  63.1366660  15.3250940  47.2036100  62.3086800  14.1027700  46.8685800
  63.7593290  13.5874310  34.5190090  64.6544080  13.9259280  34.5408850
  63.7910920  12.8653720  33.8914370  57.3989450   8.9601360  32.7477090
  57.8364320   9.5031030  33.4034670  57.8837180   8.1348310  32.7573430
  54.6135250  11.7490390  40.1997350  54.9438260  10.8811450  39.9675990
  55.0426250  11.9548910  41.0302310  59.2097170  10.0799400  37.8599320
  58.9092710   9.9564370  38.7603230  59.1034660   9.2207990  37.4515050
  55.1025460  12.6160980  42.9378980  54.6656450  12.7961780  43.7703130
  55.6703140  13.3735600  42.7960700  54.9349890   5.1281210  39.2967860
  54.2798730   4.8592850  38.6527560  55.7727840   5.0185690  38.8469840
  55.9725820   5.5133780  43.8371200  56.3398860   5.4261180  44.7167220
  55.4036640   4.7500330  43.7378060  55.5241820   2.4242870  47.7429620
  54.6297870   2.3909630  48.0823330  56.0639370   2.6229660  48.5080870
  54.1487970   2.3380140  35.2393190  53.2452050   2.6010340  35.0644850
  54.6328590   2.6091310  34.4593150  57.3877900  10.0266470  48.9991350
  57.3447530   9.6559380  49.8805810  57.5188910  10.9644040  49.1393170
  61.0883930  11.5826060  44.6001070  60.8475290  11.8500620  43.7131590
  62.0286570  11.7531790  44.6551930  57.2265930  12.9728720  46.1189130
  56.6326250  12.8413420  46.8579170  57.2189770  12.1366860  45.6531230
  56.8578160  10.3387100  45.0697170  56.1312220   9.7192390  45.0023120
  56.9187310  10.7327710  44.1995250  60.4623260  12.5532100  41.8546580
  60.9788280  11.9419460  41.3294840  61.1120640  13.0560880  42.3457590
  63.2018760  13.4440590  42.6815560  63.4896570  13.1894890  41.8048570
  63.7141980  12.8917950  43.2721130  55.1408160  13.6561490  38.2793930
  54.9730200  13.0232170  38.9775820  54.2742670  13.8620890  37.9288120
  56.7470860  12.3494720  35.7244070  56.2218480  12.7302750  35.0206030
  56.6715440  12.9745490  36.4453780  63.2691120  14.3656690  50.0483760
  64.1958430  14.1300960  50.0919720  63.2541550  15.1928690  49.5669790
  59.3463830  14.2977100  34.5993320  60.0782650  14.0136380  34.0517210
  59.6057500  14.0590380  35.4892700  58.5078620  10.4141830  34.6039650
  57.8787500  10.8826930  35.1525480  58.6226450   9.5691050  35.0385840
  65.9628340   4.4647490  20.7540850  65.8822390   3.5502100  20.4832560
  65.5492760   4.9614560  20.0480560  64.0946380   6.2426510  22.6350120
  63.3188480   5.7626950  22.9248690  64.7459310   5.5632160  22.4606280
  58.1112210   6.5546320  23.5125880  57.2797090   6.2995030  23.9122390
  58.7193190   6.6257090  24.2483800  58.0913470  10.5886410  23.7083900
  58.3941510   9.6984150  23.5294120  58.8357060  11.1456630  23.4806150
  54.4837170   4.1153860  23.1807970  55.0553280   3.3476060  23.1811610
  54.4838710   4.4142620  22.2714580  64.3417120  12.9344710  21.0353240
  63.7228560  13.3902210  20.4647680  65.1968900  13.0896170  20.6342940
  63.5355370   8.9183700  22.6420280  63.4663650   7.9773640  22.4809410
  64.2975230   9.0085110  23.2142850  60.5373280   3.0666080  22.6631830
  61.0451500   3.5647050  23.3036850  61.0686520   2.2901280  22.4871190
  65.2080470   7.8183950  18.4285150  64.5897740   8.2833400  17.8647870
  65.7203720   8.5111430  18.8454660  60.0712230   7.3459820  25.1068750
  59.7381610   7.9728740  25.7489820  60.2478910   7.8721700  24.3270420
  59.2831330   9.3140620  26.9217930  59.9005330   9.9891700  26.6402380
  58.4224450   9.7228600  26.8305430  54.5763670   8.5040480  15.8024780
  54.1991650   8.9927580  15.0709680  54.8336740   9.1765760  16.4331310
  67.7367660  12.6224160  23.5517750  67.7494820  12.2186450  22.6840010
  67.1842880  13.3971450  23.4479180  67.1353100   7.5254000  24.8800360
  67.5521890   7.3114110  24.0453820  67.8592920   7.7826790  25.4508980
  64.5733360   4.9705700  17.9970410  63.6462640   4.9043080  18.2258880
  64.7258180   5.9085830  17.8825650  68.6030650   6.5326000  18.5005660
  67.9843070   6.1945550  17.8531960  68.5855100   5.8885760  19.2084850
  68.0457210   2.7110540  25.9171470  67.6328390   3.5364250  26.1711460
  67.3133160   2.1255580  25.7247830  60.1790000   5.4970440  20.7790140
  59.7747000   4.7847690  20.2836040  60.2653120   5.1523680  21.6678180
  60.6471700   9.1838000  22.9429350  60.3499990   8.5783470  22.2637130
  61.5971520   9.2215310  22.8318710  58.8918620   2.2713650  24.5589180
  59.4433210   2.3808990  23.7842430  59.4062130   2.6451250  25.2744410
  68.7357310  12.7569870  26.6052450  68.2587870  13.5642060  26.4125060
  68.0519100  12.1048200  26.7578660  59.7390130   8.9219690  29.5937150
  58.8418660   9.1459660  29.8410550  59.7643000   9.0454630  28.6448550
  66.7795350   5.7712810  15.5078410  67.2188630   4.9335240  15.3616230
  67.4923770   6.4042210  15.5942550  58.5661350   5.7933010  28.1694520
  58.4269120   6.6655810  28.5381920  57.6842710   5.4505820  28.0242460
  64.8890730  10.7108880  19.4759650  65.3286640  11.4533210  19.0615040
  64.8277620  10.9535450  20.3998610  60.3641700  11.7354710  30.3779670
  60.3357130  12.1397660  29.5108100  60.2006670  10.8065070  30.2151270
  56.8794630   4.3915420  18.2796790  56.7592230   5.1177510  17.6678060
  56.5695520   3.6218330  17.8024700  54.5180000   7.5630560  24.0865430
  54.5960420   7.6979330  23.1421150  55.1321680   6.8546450  24.2793550
  55.7627630   9.2630750  20.4971610  55.3555710   9.4045340  19.6425210
  56.6540640   8.9790910  20.2942820  65.5806510  13.4122660  27.4038660
  66.0951180  13.3230670  28.2061090  64.7375590  13.7582360  27.6966570
  67.5560910  13.6978000  16.8322660  67.3962050  13.4080940  17.7304490
  67.3907620  12.9218130  16.2967890  60.0349290  13.4776530  18.6094280
  59.8591770  12.5612070  18.3962080  59.1805030  13.8363820  18.8492080
  67.2587040  11.2065560  15.3920660  66.5652200  11.2042850  14.7322940
  68.0009900  10.7824880  14.9614830  66.8236970  12.8328270  19.4669150
  67.2793920  12.0517650  19.7807770  67.1629490  13.5435090  20.0110330
  54.5739520   8.6044730  26.6259890  54.7370560   8.1350090  25.8079260
  55.0391970   8.0968290  27.2908730  65.7282320   3.3229710  30.4951230
  66.0535730   2.4893460  30.1553460  66.5162650   3.8458230  30.6429560
  59.1372510   2.8584060  19.3901710  58.9113430   2.6421230  20.2948330
  58.3565040   3.2912520  19.0447680  66.3670270   2.8647430  17.9892360
  65.7679160   3.5883230  17.8055980  66.9149880   2.8024210  17.2068810
  61.5771720   3.7569640  30.0561980  61.4815320   2.8164370  29.9062380
  62.4203700   3.9784710  29.6610050  54.1969540   2.0331890  13.4528560
  54.1144210   2.9762650  13.5943550  53.8452600   1.8906800  12.5740910
  65.5590280   4.0916720  24.1146420  64.8271400   4.6003530  24.4636520
  65.1614620   3.2746700  23.8135200  62.0587820   1.7683000  15.5105670
  62.1800640   1.7269480  16.4591490  61.6736330   2.6307150  15.3552400
  61.0709320   4.0784140  14.9088970  60.5026220   3.6302390  14.2824880
  61.7798320   4.4376920  14.3754120  56.1478500   7.9796160  28.7855700
  55.7633290   7.3389830  29.3838660  56.4590690   8.6832280  29.3550430
  62.2975640   4.8272700  24.2664320  62.6645770   4.3531270  25.0125660
  62.1080700   5.7014270  24.6072660  60.0875010   3.8681340  26.5848530
  59.7832080   4.7473320  26.8098890  61.0421470   3.9281130  26.6205970
  58.6156800   8.0742330  17.1815380  57.8419060   7.5339950  17.0214100
  59.3451430   7.5548940  16.8433140  64.7563580   7.1416750  28.8610770
  64.6900890   6.2212420  28.6068360  64.1268720   7.2392190  29.5755410
  67.5503110   2.8365300  15.4133320  68.4382730   3.1482530  15.2384660
  67.5208200   1.9637550  15.0213900  58.6594200   7.7422710  20.8194190
  59.1772870   6.9390970  20.7651080  58.2078220   7.6801850  21.6611020
  63.5463700   9.0088990  16.0921490  63.8879400   9.7531220  15.5964810
  62.7176410   9.3220110  16.4546320  56.1438740   4.7084080  27.7319890
  55.7853680   5.3737930  28.3193230  55.8493300   3.8767630  28.1032510
  59.3451860   5.1668320  30.6159440  59.0452000   5.3125500  29.7187260
  60.1163100   4.6073610  30.5232830  64.6880310   9.9637320  28.6114570
  64.7024850   9.0318280  28.3933480  63.9805410  10.0497080  29.2504340
  66.4291110   8.3304830  21.4567000  66.7814930   7.7332960  20.7968370
  65.5453440   8.0049060  21.6275250  62.5154390   9.0902520  18.8637410
  63.2025520   9.6371730  19.2445000  61.7286810   9.6343250  18.8987020
  54.6546790   4.7075340  14.3554490  55.5241640   4.9900140  14.6390410
  54.1637110   5.5211210  14.2403300  61.8181600   6.0948550  18.4762770
  62.2744380   6.9053800  18.7022960  61.4669810   5.7771690  19.3081260
  64.1214210  11.6054890  25.7055070  64.7656430  11.8114270  26.3828490
  64.4843650  10.8443290  25.2525920  65.3946290   9.6087240  24.4232520
  66.0368520   8.9080400  24.5364690  65.9195640  10.3885680  24.2429410
  67.1683910  10.4082140  27.6268580  67.5040150  10.9948830  28.3046500
  66.2484250  10.2774850  27.8566370  55.0218040  13.9202720  14.9216120
  55.3815680  14.5192060  14.2673390  54.8810380  14.4662610  15.6951150
  55.0059900  12.1857580  29.3958520  55.1151020  11.2452320  29.2553910
  54.3540460  12.4512330  28.7472250  62.9972490  10.4573470  30.7956640
  62.6769360   9.7382710  31.3402330  62.3230850  11.1328540  30.8692700
  61.0386660  11.3033920  15.7389790  61.0296760  12.0363610  15.1234300
  60.1185020  11.0565500  15.8316750  56.6393300   6.5248810  16.4836550
  56.0321250   7.2647710  16.4931850  57.1142650   6.6148170  15.6574750
  64.0246260  11.3662160  14.4014980  64.1258240  11.1626150  13.4716960
  63.1248000  11.1120440  14.6062760  63.1728080   3.3439220  26.3831410
  63.6713330   3.8185040  27.0483260  63.3151030   2.4202740  26.5901440
  62.6664370  13.8848480  19.0962650  62.9205870  13.8469870  18.1742020
  61.7176850  13.7581810  19.0890900  58.6498590   6.4859960  14.2325120
  59.4161860   6.3741320  14.7950550  58.7273280   5.7897930  13.5801890
  57.3445350   3.9185030  14.9158010  57.4248940   2.9712540  15.0275410
  58.2365100   4.2491910  15.0218670  58.1460060  14.0680420  22.0192550
  58.8822540  13.5195880  22.2901120  58.5300980  14.9336430  21.8798540
  55.0305540  10.1353990  17.8934060  54.1045320  10.3775130  17.8839470
  55.4961970  10.9628250  17.7718810  57.1518340  13.2526490  31.2078130
  57.9531070  13.5738540  31.6213530  56.6370160  12.8922070  31.9298040
  61.2562370  13.2410730  13.8418120  62.0490980  13.5299560  13.3899910
  60.7366720  12.8102900  13.1630600  65.9882970   9.3606360  31.1553540
  65.3821130   9.3837960  30.4149290  65.6837080   8.6289400  31.6920790
  67.4183340  13.0886650  29.7662950  68.3705090  13.0044670  29.7163190
  67.2711560  13.7528360  30.4396740  54.8716150   5.7399950  30.1514180
  55.3755170   5.1607230  30.7230410  54.1323570   6.0240180  30.6890550
  61.7739770   8.4614140  13.7060470  61.6690410   7.8466490  14.4321850
  61.6063990   7.9380030  12.9223480  61.9254090   7.1470940  29.6849700
  61.1599760   7.7155940  29.6004370  62.1070050   6.8547150  28.7917930
  65.0142500   7.5234170  14.3102460  64.4652600   7.9703470  14.9545200
  65.6361760   7.0183420  14.8340130  56.9039230   3.8829540  31.0464250
  56.9444570   3.5843410  31.9549480  57.7584730   4.2837150  30.8871770
  60.6817620   6.4825090  16.2067760  61.1034040   6.3164960  17.0499150
  60.8068460   5.6725320  15.7122900  58.8445040   2.4621640  29.0138740
  58.3141500   1.9712590  28.3862080  59.5133110   2.8905840  28.4796670
  63.1945260   5.5062700  13.4544860  63.7150920   4.7911720  13.0886010
  63.8413660   6.1448570  13.7545370  67.7423100   6.9291100  28.7779930
  68.1564120   7.0836180  29.6270350  66.8074100   7.0546320  28.9405710
  68.2145270   4.2687260  30.7819080  68.7966040   3.5139580  30.6939560
  68.3907040   4.7994700  30.0050560  62.5038330   6.8811580  26.7475860
  62.9226440   7.7244310  26.5752100  61.5846960   7.0183620  26.5182640
  64.8402230   4.6127760  28.1313700  64.9598440   4.0168900  28.8708540
  65.6996230   4.6497450  27.7115000  67.1790130   5.1664950  26.7076210
  66.6525350   5.6907570  26.1041350  67.5221470   5.7992340  27.3385940
  59.5776520   2.5558320  13.1525920  59.3765580   1.6925680  13.5139260
  59.4068570   2.4691680  12.2147520  60.3545750  13.1864590  27.8633590
  59.8166840  13.9110650  27.5442290  60.6079710  12.7094930  27.0730930
  63.2107960  14.4215800  28.1220240  63.1366660  15.3250940  28.4292610
  62.3086800  14.1027700  28.0942310  63.7593290  13.5874310  15.7446600
  64.6544080  13.9259280  15.7665360  63.7910920  12.8653720  15.1170880
  57.3989450   8.9601360  13.9733600  57.8364320   9.5031030  14.6291180
  57.8837180   8.1348310  13.9829940  54.6135250  11.7490390  21.4253860
  54.9438260  10.8811450  21.1932500  55.0426250  11.9548910  22.2558820
  59.2097170  10.0799400  19.0855830  58.9092710   9.9564370  19.9859740
  59.1034660   9.2207990  18.6771560  55.1025460  12.6160980  24.1635490
  54.6656450  12.7961780  24.9959640  55.6703140  13.3735600  24.0217210
  54.9349890   5.1281210  20.5224370  54.2798730   4.8592850  19.8784070
  55.7727840   5.0185690  20.0726350  55.9725820   5.5133780  25.0627710
  56.3398860   5.4261180  25.9423730  55.4036640   4.7500330  24.9634570
  55.5241820   2.4242870  28.9686130  54.6297870   2.3909630  29.3079840
  56.0639370   2.6229660  29.7337380  54.1487970   2.3380140  16.4649700
  53.2452050   2.6010340  16.2901360  54.6328590   2.6091310  15.6849660
  57.3877900  10.0266470  30.2247860  57.3447530   9.6559380  31.1062320
  57.5188910  10.9644040  30.3649680  61.0883930  11.5826060  25.8257580
  60.8475290  11.8500620  24.9388100  62.0286570  11.7531790  25.8808440
  57.2265930  12.9728720  27.3445640  56.6326250  12.8413420  28.0835680
  57.2189770  12.1366860  26.8787740  56.8578160  10.3387100  26.2953680
  56.1312220   9.7192390  26.2279630  56.9187310  10.7327710  25.4251760
  60.4623260  12.5532100  23.0803090  60.9788280  11.9419460  22.5551350
  61.1120640  13.0560880  23.5714100  63.2018760  13.4440590  23.9072070
  63.4896570  13.1894890  23.0305080  63.7141980  12.8917950  24.4977640
  55.1408160  13.6561490  19.5050440  54.9730200  13.0232170  20.2032330
  54.2742670  13.8620890  19.1544630  56.7470860  12.3494720  16.9500580
  56.2218480  12.7302750  16.2462540  56.6715440  12.9745490  17.6710290
  63.2691120  14.3656690  31.2740270  64.1958430  14.1300960  31.3176230
  63.2541550  15.1928690  30.7926300  59.3463830  14.2977100  15.8249830
  60.0782650  14.0136380  15.2773720  59.6057500  14.0590380  16.7149210
  58.5078620  10.4141830  15.8296160  57.8787500  10.8826930  16.3781990
  58.6226450   9.5691050  16.2642350  64.0946380   6.2426510   3.8606630
  63.3188480   5.7626950   4.1505200  64.7459310   5.5632160   3.6862790
  58.1112210   6.5546320   4.7382390  57.2797090   6.2995030   5.1378900
  58.7193190   6.6257090   5.4740310  58.0913470  10.5886410   4.9340410
  58.3941510   9.6984150   4.7550630  58.8357060  11.1456630   4.7062660
  54.4837170   4.1153860   4.4064480  55.0553280   3.3476060   4.4068120
  54.4838710   4.4142620   3.4971090  64.3417120  12.9344710   2.2609750
  63.7228560  13.3902210   1.6904190  65.1968900  13.0896170   1.8599450
  63.5355370   8.9183700   3.8676790  63.4663650   7.9773640   3.7065920
  64.2975230   9.0085110   4.4399360  60.5373280   3.0666080   3.8888340
  61.0451500   3.5647050   4.5293360  61.0686520   2.2901280   3.7127700
  60.0712230   7.3459820   6.3325260  59.7381610   7.9728740   6.9746330
  60.2478910   7.8721700   5.5526930  59.2831330   9.3140620   8.1474440
  59.9005330   9.9891700   7.8658890  58.4224450   9.7228600   8.0561940
  67.7367660  12.6224160   4.7774260  67.7494820  12.2186450   3.9096520
  67.1842880  13.3971450   4.6735690  67.1353100   7.5254000   6.1056870
  67.5521890   7.3114110   5.2710330  67.8592920   7.7826790   6.6765490
  68.0457210   2.7110540   7.1427980  67.6328390   3.5364250   7.3967970
  67.3133160   2.1255580   6.9504340  60.6471700   9.1838000   4.1685860
  60.3499990   8.5783470   3.4893640  61.5971520   9.2215310   4.0575220
  58.8918620   2.2713650   5.7845690  59.4433210   2.3808990   5.0098940
  59.4062130   2.6451250   6.5000920  68.7357310  12.7569870   7.8308960
  68.2587870  13.5642060   7.6381570  68.0519100  12.1048200   7.9835170
  59.7390130   8.9219690  10.8193660  58.8418660   9.1459660  11.0667060
  59.7643000   9.0454630   9.8705060  58.5661350   5.7933010   9.3951030
  58.4269120   6.6655810   9.7638430  57.6842710   5.4505820   9.2498970
  60.3641700  11.7354710  11.6036180  60.3357130  12.1397660  10.7364610
  60.2006670  10.8065070  11.4407780  54.5180000   7.5630560   5.3121940
  54.5960420   7.6979330   4.3677660  55.1321680   6.8546450   5.5050060
  65.5806510  13.4122660   8.6295170  66.0951180  13.3230670   9.4317600
  64.7375590  13.7582360   8.9223080  54.5739520   8.6044730   7.8516400
  54.7370560   8.1350090   7.0335770  55.0391970   8.0968290   8.5165240
  65.7282320   3.3229710  11.7207740  66.0535730   2.4893460  11.3809970
  66.5162650   3.8458230  11.8686070  61.5771720   3.7569640  11.2818490
  61.4815320   2.8164370  11.1318890  62.4203700   3.9784710  10.8866560
  65.5590280   4.0916720   5.3402930  64.8271400   4.6003530   5.6893030
  65.1614620   3.2746700   5.0391710  56.1478500   7.9796160  10.0112210
  55.7633290   7.3389830  10.6095170  56.4590690   8.6832280  10.5806940
  62.2975640   4.8272700   5.4920830  62.6645770   4.3531270   6.2382170
  62.1080700   5.7014270   5.8329170  60.0875010   3.8681340   7.8105040
  59.7832080   4.7473320   8.0355400  61.0421470   3.9281130   7.8462480
  64.7563580   7.1416750  10.0867280  64.6900890   6.2212420   9.8324870
  64.1268720   7.2392190  10.8011920  58.6594200   7.7422710   2.0450700
  59.1772870   6.9390970   1.9907590  58.2078220   7.6801850   2.8867530
  56.1438740   4.7084080   8.9576400  55.7853680   5.3737930   9.5449740
  55.8493300   3.8767630   9.3289020  59.3451860   5.1668320  11.8415950
  59.0452000   5.3125500  10.9443770  60.1163100   4.6073610  11.7489340
  64.6880310   9.9637320   9.8371080  64.7024850   9.0318280   9.6189990
  63.9805410  10.0497080  10.4760850  66.4291110   8.3304830   2.6823510
  66.7814930   7.7332960   2.0224880  65.5453440   8.0049060   2.8531760
  64.1214210  11.6054890   6.9311580  64.7656430  11.8114270   7.6085000
  64.4843650  10.8443290   6.4782430  65.3946290   9.6087240   5.6489030
  66.0368520   8.9080400   5.7621200  65.9195640  10.3885680   5.4685920
  67.1683910  10.4082140   8.8525090  67.5040150  10.9948830   9.5303010
  66.2484250  10.2774850   9.0822880  55.0059900  12.1857580  10.6215030
  55.1151020  11.2452320  10.4810420  54.3540460  12.4512330   9.9728760
  62.9972490  10.4573470  12.0213150  62.6769360   9.7382710  12.5658840
  62.3230850  11.1328540  12.0949210  63.1728080   3.3439220   7.6087920
  63.6713330   3.8185040   8.2739770  63.3151030   2.4202740   7.8157950
  58.1460060  14.0680420   3.2449060  58.8822540  13.5195880   3.5157630
  58.5300980  14.9336430   3.1055050  57.1518340  13.2526490  12.4334640
  57.9531070  13.5738540  12.8470040  56.6370160  12.8922070  13.1554550
  65.9882970   9.3606360  12.3810050  65.3821130   9.3837960  11.6405800
  65.6837080   8.6289400  12.9177300  67.4183340  13.0886650  10.9919460
  68.3705090  13.0044670  10.9419700  67.2711560  13.7528360  11.6653250
  54.8716150   5.7399950  11.3770690  55.3755170   5.1607230  11.9486920
  54.1323570   6.0240180  11.9147060  61.9254090   7.1470940  10.9106210
  61.1599760   7.7155940  10.8260880  62.1070050   6.8547150  10.0174440
  56.9039230   3.8829540  12.2720760  56.9444570   3.5843410  13.1805990
  57.7584730   4.2837150  12.1128280  58.8445040   2.4621640  10.2395250
  58.3141500   1.9712590   9.6118590  59.5133110   2.8905840   9.7053180
  67.7423100   6.9291100  10.0036440  68.1564120   7.0836180  10.8526860
  66.8074100   7.0546320  10.1662220  68.2145270   4.2687260  12.0075590
  68.7966040   3.5139580  11.9196070  68.3907040   4.7994700  11.2307070
  62.5038330   6.8811580   7.9732370  62.9226440   7.7244310   7.8008610
  61.5846960   7.0183620   7.7439150  64.8402230   4.6127760   9.3570210
  64.9598440   4.0168900  10.0965050  65.6996230   4.6497450   8.9371510
  67.1790130   5.1664950   7.9332720  66.6525350   5.6907570   7.3297860
  67.5221470   5.7992340   8.5642450  60.3545750  13.1864590   9.0890100
  59.8166840  13.9110650   8.7698800  60.6079710  12.7094930   8.2987440
  63.2107960  14.4215800   9.3476750  63.1366660  15.3250940   9.6549120
  62.3086800  14.1027700   9.3198820  54.6135250  11.7490390   2.6510370
  54.9438260  10.8811450   2.4189010  55.0426250  11.9548910   3.4815330
  55.1025460  12.6160980   5.3892000  54.6656450  12.7961780   6.2216150
  55.6703140  13.3735600   5.2473720  55.9725820   5.5133780   6.2884220
  56.3398860   5.4261180   7.1680240  55.4036640   4.7500330   6.1891080
  55.5241820   2.4242870  10.1942640  54.6297870   2.3909630  10.5336350
  56.0639370   2.6229660  10.9593890  57.3877900  10.0266470  11.4504370
  57.3447530   9.6559380  12.3318830  57.5188910  10.9644040  11.5906190
  61.0883930  11.5826060   7.0514090  60.8475290  11.8500620   6.1644610
  62.0286570  11.7531790   7.1064950  57.2265930  12.9728720   8.5702150
  56.6326250  12.8413420   9.3092190  57.2189770  12.1366860   8.1044250
  56.8578160  10.3387100   7.5210190  56.1312220   9.7192390   7.4536140
  56.9187310  10.7327710   6.6508270  60.4623260  12.5532100   4.3059600
  60.9788280  11.9419460   3.7807860  61.1120640  13.0560880   4.7970610
  63.2018760  13.4440590   5.1328580  63.4896570  13.1894890   4.2561590
  63.7141980  12.8917950   5.7234150  63.2691120  14.3656690  12.4996780
  64.1958430  14.1300960  12.5432740  63.2541550  15.1928690  12.0182810
  47.1884850  60.7877960  58.3027830  47.1078900  59.8732570  58.0319540
  46.7749270  61.2845030  57.5967540  45.3202890  62.5656980  60.1837100
  44.5444990  62.0857420  60.4735670  45.9715820  61.8862630  60.0093260
  39.3368720  62.8776790  61.0612860  38.5053600  62.6225500  61.4609370
  39.9449700  62.9487560  61.7970780  37.7460670  57.8378680  54.8455250
  36.8577370  58.1794650  54.7435130  38.0301860  57.6379000  53.9536080
  35.7093680  60.4384330  60.7294950  36.2809790  59.6706530  60.7298590
  35.7095220  60.7373090  59.8201560  45.7917050  58.0484550  60.4176190
  46.1681870  57.1756430  60.3049860  45.6936560  58.3843250  59.5266630
  39.9222060  56.4210180  55.8793630  40.0288810  57.3213910  56.1862390
  39.0114420  56.3728150  55.5888280  49.5741170  55.5434990  57.3504530
  50.3950790  55.0531560  57.3930010  49.6075250  56.1332650  58.1036370
  37.5705220  58.3429190  61.1246220  38.2515330  58.6067560  61.7433620
  37.2553270  57.5030060  61.4584230  41.7629790  59.3896550  60.2118810
  42.2708010  59.8877520  60.8523830  42.2943030  58.6131750  60.0358170
  46.4336980  64.1414420  55.9772130  45.8154250  64.6063870  55.4134850
  46.9460230  64.8341900  56.3941640  49.8102650  57.4835370  60.1232070
  49.1058220  57.7720260  60.7035180  50.1714810  58.2935480  59.7631630
  52.8789570  56.9290160  60.5141280  51.9314480  56.9629140  60.6456710
  53.2039560  57.7429110  60.8990640  43.4109110  53.2287340  58.8097270
  43.7184090  52.6734230  58.0932770  42.4809810  53.3631800  58.6270260
  45.7989870  61.2936170  55.5457390  44.8719150  61.2273550  55.7745860
  45.9514690  62.2316300  55.4312630  45.7858950  57.5653170  52.5424550
  44.8462620  57.7267130  52.6277010  46.1042210  58.2838850  51.9960540
  49.8287160  62.8556470  56.0492640  49.2099580  62.5176020  55.4018940
  49.8111610  62.2116230  56.7571830  41.4046510  61.8200910  58.3277120
  41.0003510  61.1078160  57.8323020  41.4909630  61.4754150  59.2165160
  48.0051860  62.0943280  53.0565390  48.4445140  61.2565710  52.9103210
  48.7180280  62.7272680  53.1429530  51.5869000  53.3486090  51.3706430
  51.2741660  53.4412920  52.2705500  52.3481470  53.9267120  51.3203860
  38.1051140  60.7145890  55.8283770  37.9848740  61.4407980  55.2165040
  37.7952030  59.9448800  55.3511680  35.7436510  63.8861030  61.6352410
  35.8216930  64.0209800  60.6908130  36.3578190  63.1776920  61.8280530
  40.5714800  54.0580960  59.2107440  40.1282950  54.8390500  58.8791960
  41.1299790  54.3810850  59.9178380  43.6873620  53.6791660  54.0913270
  43.0627800  53.6751530  54.8166580  43.6003740  52.8122620  53.6949240
  42.6090700  54.6028290  61.0697040  42.9063030  55.5091120  60.9889060
  43.1576260  54.1147070  60.4556610  40.3629020  59.1814530  56.9388690
  40.1369940  58.9651700  57.8435310  39.5821550  59.6142990  56.5934660
  47.5926780  59.1877900  55.5379340  46.9935670  59.9113700  55.3542960
  48.1406390  59.1254680  54.7555790  46.1991650  57.8241440  57.5682620
  46.5921220  58.1413640  56.7551310  46.5608500  56.9453320  57.6827140
  35.2355820  54.4142240  59.7912820  34.9468870  54.9845100  60.5037800
  35.9801580  53.9346690  60.1544050  35.4226050  58.3562360  51.0015540
  35.3400720  59.2993120  51.1430530  35.0709110  58.2137270  50.1227890
  43.2224180  57.0901390  60.0685890  43.2260240  56.6491340  59.2190430
  44.1175300  57.4118720  60.1757710  39.0726560  56.9727880  59.0280100
  38.7326610  57.4503110  59.7847150  38.3103880  56.5193000  58.6681200
  43.2844330  58.0913470  53.0592650  43.4057150  58.0499950  54.0078470
  42.8992840  58.9537620  52.9039380  47.2472700  55.8680870  61.0756340
  47.2645440  56.3189520  61.9198190  46.9988280  54.9686510  61.2889780
  42.2965830  60.4014610  52.4575950  41.7282730  59.9532860  51.8311860
  43.0054830  60.7607390  51.9241100  36.3872640  55.8946860  57.9444770
  36.1019560  55.5302530  58.7823390  36.3251500  55.1627320  57.3307910
  39.8413310  64.3972800  54.7302360  39.0675570  63.8570420  54.5701080
  40.5707940  63.8779410  54.3920120  50.6001290  63.3938160  60.5228750
  51.3200410  63.8893450  60.1324860  50.3983110  62.7156050  59.8782620
  46.0611230  54.7876120  54.6658140  45.2475840  54.2889290  54.5903450
  45.8673180  55.6274370  54.2494490  48.7759620  59.1595770  52.9620300
  49.6639240  59.4713000  52.7871640  48.7464710  58.2868020  52.5700880
  39.8850710  64.0653180  58.3681170  40.4029380  63.2621440  58.3138060
  39.4334730  64.0032320  59.2098000  51.0473890  60.4707610  52.4300160
  50.9637610  60.9021830  51.5796600  51.7668080  60.9305960  52.8626980
  47.6547620  64.6535300  59.0053980  48.0071440  64.0563430  58.3455350
  46.7709950  64.3279530  59.1762230  35.8803300  61.0305810  51.9041470
  36.7498150  61.3130610  52.1877390  35.3893620  61.8441680  51.7890280
  43.0438110  62.4179020  56.0249750  43.5000890  63.2284270  56.2509940
  42.6926320  62.1002160  56.8568240  38.9449890  52.7616670  56.4972270
  38.8164520  52.7534570  57.4457190  38.1211910  53.0999760  56.1463280
  50.0474770  64.1338270  53.3572800  49.7596470  64.5950960  54.1450680
  50.8426940  63.6736040  53.6257020  37.8649810  62.8479280  54.0323530
  37.2577760  63.5878180  54.0418830  38.3399160  62.9378640  53.2061730
  50.8044630  55.9687040  54.5167980  50.1757790  56.0732710  53.8026210
  50.3096550  56.1883820  55.3061860  42.7728660  58.2472990  55.9325860
  42.0644810  58.7159330  56.3739470  43.0573140  57.5895000  56.5671050
  46.8044090  54.9723650  57.3721650  46.6811870  54.9909780  56.4231160
  47.7528650  55.0202590  57.4920050  40.9763680  56.5558070  53.3076570
  41.8254210  56.9928220  53.2416760  40.6094950  56.8678330  54.1348630
  49.8973460  61.1270830  58.2208140  48.9563600  61.1421060  58.3955830
  50.2117530  60.3406790  58.6668440  39.8755100  62.8090430  51.7812100
  40.6418370  62.6971790  52.3437530  39.9529790  62.1128400  51.1288870
  38.5701860  60.2415500  52.4644990  38.6505450  59.2943010  52.5762390
  39.4621610  60.5722380  52.5705650  42.9996280  64.7844610  51.2547450
  42.8946920  64.1696960  51.9808830  42.8320500  64.2610500  50.4710460
  46.2399010  63.8464640  51.8589440  45.6909110  64.2933940  52.5032180
  46.8618270  63.3413890  52.3827110  41.9074130  62.8055560  53.7554740
  42.3290550  62.6395430  54.5986130  42.0324970  61.9955790  53.2609880
  44.4201770  61.8293170  51.0031840  44.9407430  61.1142190  50.6372990
  45.0670170  62.4679040  51.3032350  40.8033030  58.8788790  50.7012900
  40.6022090  58.0156150  51.0626240  40.6325080  58.7922150  49.7634500
  48.2821340  53.6897020  53.2299780  48.5623630  52.8464920  53.5859200
  47.5087070  53.9220130  53.7438530  39.6015830  55.9789410  50.6890780
  39.9041730  55.9856840  49.7809930  40.3410420  55.6287270  51.1858440
  42.8200760  54.9224030  51.6746980  42.4722760  54.2448020  51.0949430
  43.0213530  54.4613540  52.4890370  52.6602060  62.9273750  53.8403690
  53.4220970  63.4970400  53.9463380  52.6756430  62.3600950  54.6112000
  36.1606400  61.4511680  58.0711350  35.5055240  61.1823320  57.4271050
  36.9984350  61.3416160  57.6213330  53.6662030  63.7823850  58.6845620
  54.0370860  62.9991170  58.2781590  54.3063960  64.4712950  58.5062920
  52.7121230  63.2208120  50.9976210  52.9870070  64.1287000  50.8695430
  52.5231970  63.1570650  51.9338200  49.1096840  56.2452970  52.2929840
  49.5281720  56.0583950  51.4526500  48.8032900  55.3932020  52.6032770
  52.6086570  61.1577110  55.9905640  52.2330170  60.3905040  55.5586930
  51.8789690  61.5399810  56.4780570  35.3744480  58.6610610  54.0136680
  34.4708560  58.9240810  53.8388340  35.8585100  58.9321780  53.2336640
  51.8837530  59.3834600  59.2912880  52.4075010  58.8897250  58.6603050
  52.4696950  59.5184960  60.0360450  37.9171690  57.7176150  51.9231060
  38.6263390  57.2959370  51.4378340  37.2011630  57.7851380  51.2914410
  37.5645850  53.7715480  50.9633710  38.2873980  54.3124420  51.2814930
  37.8370370  53.4978900  50.0875250  51.3737500  58.6407950  55.2305290
  51.8696620  58.4078820  56.0154170  51.1753570  57.8019790  54.8142930
  37.2538040  53.0221670  60.8656330  37.9014230  52.4719050  60.4251490
  37.6739880  53.2764820  61.6872140  52.8024660  57.2768900  57.7642970
  52.6923940  57.1224940  58.7025240  53.5632250  56.7489840  57.5218380
  53.6914930  55.1076820  51.0049110  54.6164240  54.9758000  50.7967400
  53.6690720  55.1869640  51.9585560  53.7653420  55.8787480  53.6305820
  52.9704920  55.8132600  54.1598730  53.9696700  56.8138120  53.6191170
  50.1973350  54.2084360  60.0804650  50.6381440  54.1529460  59.2326250
  49.9280940  55.1242370  60.1514830  52.0611920  53.8399600  58.0913470
  52.0000320  52.8960820  57.9444490  52.8403950  53.9479690  58.6366930
  36.9892690  53.8108740  54.5569280  37.7472050  53.9237620  53.9833310
  36.5269860  54.6477940  54.5112710  43.5306500  55.9248010  57.5471590
  42.7181010  55.5504900  57.2067470  44.0348140  55.1693090  57.8492780
  48.0331480  52.5890460  58.7854660  48.6360850  53.1610670  59.2603180
  47.2924470  53.1529900  58.5628560  51.1766080  52.9912020  54.0594940
  51.3716710  53.8895470  54.3262370  50.3895950  52.7599100  54.5527890
  39.3617840  54.3372790  53.0971250  39.8910600  53.5502590  52.9679200
  39.9946160  55.0163980  53.3306780  41.5555680  54.0747930  56.1516640
  40.9258420  53.3735240  56.3186770  41.0160820  54.8352060  55.9349800
  47.1884850  60.7877960  39.5284340  47.1078900  59.8732570  39.2576050
  46.7749270  61.2845030  38.8224050  45.3202890  62.5656980  41.4093610
  44.5444990  62.0857420  41.6992180  45.9715820  61.8862630  41.2349770
  39.3368720  62.8776790  42.2869370  38.5053600  62.6225500  42.6865880
  39.9449700  62.9487560  43.0227290  37.7460670  57.8378680  36.0711760
  36.8577370  58.1794650  35.9691640  38.0301860  57.6379000  35.1792590
  35.7093680  60.4384330  41.9551460  36.2809790  59.6706530  41.9555100
  35.7095220  60.7373090  41.0458070  36.9518550  55.8468690  43.7420390
  36.7721390  54.9494440  44.0223150  36.5498630  56.3940560  44.4167340
  45.7917050  58.0484550  41.6432700  46.1681870  57.1756430  41.5306370
  45.6936560  58.3843250  40.7523140  39.9222060  56.4210180  37.1050140
  40.0288810  57.3213910  37.4118900  39.0114420  56.3728150  36.8144790
  49.5741170  55.5434990  38.5761040  50.3950790  55.0531560  38.6186520
  49.6075250  56.1332650  39.3292880  37.5705220  58.3429190  42.3502730
  38.2515330  58.6067560  42.9690130  37.2553270  57.5030060  42.6840740
  41.7629790  59.3896550  41.4375320  42.2708010  59.8877520  42.0780340
  42.2943030  58.6131750  41.2614680  53.8640720  57.5601740  45.1404670
  53.1592890  57.9483450  44.6219780  54.1298640  58.2552030  45.7425600
  40.0465890  54.0295110  45.7038740  40.0484330  54.5467500  44.8984640
  39.2170200  53.5525290  45.6808670  46.4336980  64.1414420  37.2028640
  45.8154250  64.6063870  36.6391360  46.9460230  64.8341900  37.6198150
  41.2968740  63.6690290  43.8812240  40.9638120  64.2959210  44.5233310
  41.4735420  64.1952170  43.1013910  49.8102650  57.4835370  41.3488580
  49.1058220  57.7720260  41.9291690  50.1714810  58.2935480  40.9888140
  39.7281220  55.7405070  43.7109190  40.0698030  56.5847120  43.4163060
  38.7897030  55.8888810  43.8274530  52.8789570  56.9290160  41.7397790
  51.9314480  56.9629140  41.8713220  53.2039560  57.7429110  42.1247150
  43.4109110  53.2287340  40.0353780  43.7184090  52.6734230  39.3189280
  42.4809810  53.3631800  39.8526770  48.3609610  63.8484470  43.6543850
  48.7778400  63.6344580  42.8197310  49.0849430  64.1057260  44.2252470
  45.7989870  61.2936170  36.7713900  44.8719150  61.2273550  37.0002370
  45.9514690  62.2316300  36.6569140  45.7858950  57.5653170  33.7681060
  44.8462620  57.7267130  33.8533520  46.1042210  58.2838850  33.2217050
  52.3071710  62.2471690  43.7460090  51.4790340  62.3164780  43.2710220
  52.9022190  62.8326000  43.2775920  49.8287160  62.8556470  37.2749150
  49.2099580  62.5176020  36.6275450  49.8111610  62.2116230  37.9828340
  49.2713720  59.0341010  44.6914960  48.8584900  59.8594720  44.9454950
  48.5389670  58.4486050  44.4991320  41.4046510  61.8200910  39.5533630
  41.0003510  61.1078160  39.0579530  41.4909630  61.4754150  40.4421670
  40.1175130  58.5944120  43.3332670  40.6689720  58.7039460  42.5585920
  40.6318640  58.9681720  44.0487900  48.0051860  62.0943280  34.2821900
  48.4445140  61.2565710  34.1359720  48.7180280  62.7272680  34.3686040
  39.7917860  62.1163480  46.9438010  39.6525630  62.9886280  47.3125410
  38.9099220  61.7736290  46.7985950  51.5869000  53.3486090  32.5962940
  51.2741660  53.4412920  33.4962010  52.3481470  53.9267120  32.5460370
  38.1051140  60.7145890  37.0540280  37.9848740  61.4407980  36.4421550
  37.7952030  59.9448800  36.5768190  35.7436510  63.8861030  42.8608920
  35.8216930  64.0209800  41.9164640  36.3578190  63.1776920  43.0537040
  52.7970290  58.0857590  48.5737080  52.1814560  58.5937260  48.0452540
  52.4766710  57.1855920  48.5163020  35.7996030  64.9275200  45.4003380
  35.9627070  64.4580560  44.5822750  36.2648480  64.4198760  46.0652220
  40.5714800  54.0580960  40.4363950  40.1282950  54.8390500  40.1048470
  41.1299790  54.3810850  41.1434890  44.8584610  56.9249480  46.0399270
  44.3963980  57.1332500  46.8519210  44.4562720  56.1108830  45.7369940
  49.8589120  58.1458430  47.1695930  49.0082710  57.8464180  47.4905000
  49.6990910  58.3900440  46.2579750  46.9538830  59.6460180  49.2694720
  47.2792240  58.8123930  48.9296950  47.7419160  60.1688700  49.4173050
  43.6873620  53.6791660  35.3169780  43.0627800  53.6751530  36.0423090
  43.6003740  52.8122620  34.9205750  42.6090700  54.6028290  42.2953550
  42.9063030  55.5091120  42.2145570  43.1576260  54.1147070  41.6813120
  40.3629020  59.1814530  38.1645200  40.1369940  58.9651700  39.0691820
  39.5821550  59.6142990  37.8191170  47.5926780  59.1877900  36.7635850
  46.9935670  59.9113700  36.5799470  48.1406390  59.1254680  35.9812300
  42.8028230  60.0800110  48.8305470  42.7071830  59.1394840  48.6805870
  43.6460210  60.3015180  48.4353540  46.1991650  57.8241440  38.7939130
  46.5921220  58.1413640  37.9807820  46.5608500  56.9453320  38.9083650
  37.9338770  56.4913780  46.9839250  37.5402160  57.3388990  47.1912030
  37.2457170  55.8540150  47.1747890  44.5083820  56.5748750  50.0535990
  43.8182140  56.3820950  50.6882080  45.2516120  56.8583390  50.5860290
  35.2355820  54.4142240  41.0169330  34.9468870  54.9845100  41.7294310
  35.9801580  53.9346690  41.3800560  35.4226050  58.3562360  32.2272050
  35.3400720  59.2993120  32.3687040  35.0709110  58.2137270  31.3484400
  46.7846790  60.4147190  42.8889910  46.0527910  60.9234000  43.2380010
  46.3871130  59.5977170  42.5878690  43.2224180  57.0901390  41.2942400
  43.2260240  56.6491340  40.4446940  44.1175300  57.4118720  41.4014220
  39.0726560  56.9727880  40.2536610  38.7326610  57.4503110  41.0103660
  38.3103880  56.5193000  39.8937710  43.2844330  58.0913470  34.2849160
  43.4057150  58.0499950  35.2334980  42.8992840  58.9537620  34.1295890
  47.2472700  55.8680870  42.3012850  47.2645440  56.3189520  43.1454700
  46.9988280  54.9686510  42.5146290  42.2965830  60.4014610  33.6832460
  41.7282730  59.9532860  33.0568370  43.0054830  60.7607390  33.1497610
  50.6743450  53.2813050  48.1399230  50.9989220  52.5502710  48.6657210
  50.7099960  52.9626690  47.2380220  37.3735010  64.3026630  47.5599190
  36.9889800  63.6620300  48.1582150  37.6847200  65.0062750  48.1293920
  43.5232150  61.1503170  43.0407810  43.8902280  60.6761740  43.7869150
  43.3337210  62.0244740  43.3816150  36.3872640  55.8946860  39.1701280
  36.1019560  55.5302530  40.0079900  36.3251500  55.1627320  38.5564420
  41.3131520  60.1911810  45.3592020  41.0088590  61.0703790  45.5842380
  42.2677980  60.2511600  45.3949460  39.8413310  64.3972800  35.9558870
  39.0675570  63.8570420  35.7957590  40.5707940  63.8779410  35.6176630
  50.6001290  63.3938160  41.7485260  51.3200410  63.8893450  41.3581370
  50.3983110  62.7156050  41.1039130  46.0611230  54.7876120  35.8914650
  45.2475840  54.2889290  35.8159960  45.8673180  55.6274370  35.4751000
  45.9820090  63.4647220  47.6354260  45.9157400  62.5442890  47.3811850
  45.3525230  63.5622660  48.3498900  48.7759620  59.1595770  34.1876810
  49.6639240  59.4713000  34.0128150  48.7464710  58.2868020  33.7957390
  39.8850710  64.0653180  39.5937680  40.4029380  63.2621440  39.5394570
  39.4334730  64.0032320  40.4354510  37.3695250  61.0314550  46.5063380
  37.0110190  61.6968400  47.0936720  37.0749810  60.1998100  46.8776000
  40.5708370  61.4898790  49.3902930  40.2708510  61.6355970  48.4930750
  41.3419610  60.9304080  49.2976320  51.0473890  60.4707610  33.6556670
  50.9637610  60.9021830  32.8053110  51.7668080  60.9305960  34.0883490
  52.1248030  62.9275130  46.7326640  51.3996220  63.5203910  46.5356030
  52.6523490  62.9198670  45.9340010  47.6547620  64.6535300  40.2310490
  48.0071440  64.0563430  39.5711860  46.7709950  64.3279530  40.4018740
  35.8803300  61.0305810  33.1297980  36.7498150  61.3130610  33.4133900
  35.3893620  61.8441680  33.0146790  43.0438110  62.4179020  37.2506260
  43.5000890  63.2284270  37.4766450  42.6926320  62.1002160  38.0824750
  38.9449890  52.7616670  37.7228780  38.8164520  52.7534570  38.6713700
  38.1211910  53.0999760  37.3719790  35.9443820  54.5207790  47.1835480
  35.2302340  54.7204710  47.7888090  36.3638860  53.7447360  47.5550280
  50.0474770  64.1338270  34.5829310  49.7596470  64.5950960  35.3707190
  50.8426940  63.6736040  34.8513530  37.8649810  62.8479280  35.2580040
  37.2577760  63.5878180  35.2675340  38.3399160  62.9378640  34.4318240
  47.4382600  57.0130100  44.9336930  47.8063420  56.1925310  45.2616500
  46.5780800  57.0731990  45.3492580  50.8044630  55.9687040  35.7424490
  50.1757790  56.0732710  35.0282720  50.3096550  56.1883820  36.5318370
  42.7728660  58.2472990  37.1582370  42.0644810  58.7159330  37.5995980
  43.0573140  57.5895000  37.7927560  44.3984590  59.6669690  45.1574900
  44.8969840  60.1415510  45.8226750  44.5407540  58.7433210  45.3644930
  46.8044090  54.9723650  38.5978160  46.6811870  54.9909780  37.6487670
  47.7528650  55.0202590  38.7176560  40.9763680  56.5558070  34.5333080
  41.8254210  56.9928220  34.4673270  40.6094950  56.8678330  35.3605140
  51.6051450  55.8837650  46.0003290  51.1025050  56.6243050  46.3397100
  52.4208110  56.2721650  45.6840080  49.8973460  61.1270830  39.4464650
  48.9563600  61.1421060  39.6212340  50.2117530  60.3406790  39.8924950
  39.8755100  62.8090430  33.0068610  40.6418370  62.6971790  33.5694040
  39.9529790  62.1128400  32.3545380  38.5701860  60.2415500  33.6901500
  38.6505450  59.2943010  33.8018900  39.4621610  60.5722380  33.7962160
  36.0972660  62.0630420  48.9257670  36.6011680  61.4837700  49.4973900
  35.3580080  62.3470650  49.4634040  42.9996280  64.7844610  32.4803960
  42.8946920  64.1696960  33.2065340  42.8320500  64.2610500  31.6966970
  43.1510600  63.4701410  48.4593190  42.3856270  64.0386410  48.3747860
  43.3326560  63.1777620  47.5661420  46.2399010  63.8464640  33.0845950
  45.6909110  64.2933940  33.7288690  46.8618270  63.3413890  33.6083620
  38.1295740  60.2060010  49.8207740  38.1701080  59.9073880  50.7292970
  38.9841240  60.6067620  49.6615260  41.9074130  62.8055560  34.9811250
  42.3290550  62.6395430  35.8242640  42.0324970  61.9955790  34.4866390
  40.0701550  58.7852110  47.7882230  39.5398010  58.2943060  47.1605570
  40.7389620  59.2136310  47.2540160  44.4201770  61.8293170  32.2288350
  44.9407430  61.1142190  31.8629500  45.0670170  62.4679040  32.5288860
  48.9679610  63.2521570  47.5523420  49.3820630  63.4066650  48.4013840
  48.0330610  63.3776790  47.7149200  49.4401780  60.5917730  49.5562570
  50.0222550  59.8370050  49.4683050  49.6163550  61.1225170  48.7794050
  40.5573850  55.7514480  47.8679520  40.4630720  55.1335230  47.1430390
  39.9771240  56.4780770  47.6409430  43.3235290  54.3087720  44.9006910
  42.8752590  54.3311980  44.0552460  42.6900490  53.9106740  45.4977210
  43.7294840  63.2042050  45.5219350  44.1482950  64.0474780  45.3495590
  42.8103470  63.3414090  45.2926130  46.0658740  60.9358230  46.9057190
  46.1854950  60.3399370  47.6452030  46.9252740  60.9727920  46.4858490
  48.4046640  61.4895420  45.4819700  47.8781860  62.0138040  44.8784840
  48.7477980  62.1222810  46.1129430  40.8033030  58.8788790  31.9269410
  40.6022090  58.0156150  32.2882750  40.6325080  58.7922150  30.9891010
  42.8327510  57.4779580  48.1633010  43.4227200  57.1695430  48.8510830
  42.0147750  57.0059330  48.3192910  47.6520940  57.0945390  48.3966030
  46.9636460  56.4326930  48.3316020  48.3726960  56.6483660  48.8414490
  48.2821340  53.6897020  34.4556290  48.5623630  52.8464920  34.8115710
  47.5087070  53.9220130  34.9695040  39.6015830  55.9789410  31.9147290
  39.9041730  55.9856840  31.0066440  40.3410420  55.6287270  32.4114950
  42.8200760  54.9224030  32.9003490  42.4722760  54.2448020  32.3205940
  43.0213530  54.4613540  33.7146880  52.6602060  62.9273750  35.0660200
  53.4220970  63.4970400  35.1719890  52.6756430  62.3600950  35.8368510
  36.1606400  61.4511680  39.2967860  35.5055240  61.1823320  38.6527560
  36.9984350  61.3416160  38.8469840  53.6662030  63.7823850  39.9102130
  54.0370860  62.9991170  39.5038100  54.3063960  64.4712950  39.7319430
  52.7121230  63.2208120  32.2232720  52.9870070  64.1287000  32.0951940
  52.5231970  63.1570650  33.1594710  49.1096840  56.2452970  33.5186350
  49.5281720  56.0583950  32.6783010  48.8032900  55.3932020  33.8289280
  52.6086570  61.1577110  37.2162150  52.2330170  60.3905040  36.7843440
  51.8789690  61.5399810  37.7037080  37.1982330  61.8364250  43.8371200
  37.5655370  61.7491650  44.7167220  36.6293150  61.0730800  43.7378060
  51.9986190  60.3048630  46.8501670  51.7672280  60.0761380  45.9499620
  52.2590740  61.2248180  46.8046560  36.7498330  58.7473340  47.7429620
  35.8554380  58.7140100  48.0823330  37.2895880  58.9460130  48.5080870
  50.4374260  55.5305060  49.6281370  51.3144440  55.5388460  50.0115370
  50.4495100  54.7935900  49.0173720  35.3744480  58.6610610  35.2393190
  34.4708560  58.9240810  35.0644850  35.8585100  58.9321780  34.4593150
  51.8837530  59.3834600  40.5169390  52.4075010  58.8897250  39.8859560
  52.4696950  59.5184960  41.2616960  52.0627250  59.4674470  44.0388940
  51.1129960  59.4338010  44.1533930  52.2440260  60.3774580  43.8038710
  37.9171690  57.7176150  33.1487570  38.6263390  57.2959370  32.6634850
  37.2011630  57.7851380  32.5170920  37.5645850  53.7715480  32.1890220
  38.2873980  54.3124420  32.5071440  37.8370370  53.4978900  31.3131760
  51.3737500  58.6407950  36.4561800  51.8696620  58.4078820  37.2410680
  51.1753570  57.8019790  36.0399440  37.2538040  53.0221670  42.0912840
  37.9014230  52.4719050  41.6508000  37.6739880  53.2764820  42.9128650
  52.8024660  57.2768900  38.9899480  52.6923940  57.1224940  39.9281750
  53.5632250  56.7489840  38.7474890  51.1490380  53.2163030  45.4482480
  51.7862600  53.8297170  45.8141670  51.2965270  53.2523690  44.5031710
  53.6914930  55.1076820  32.2305620  54.6164240  54.9758000  32.0223910
  53.6690720  55.1869640  33.1842070  53.7653420  55.8787480  34.8562330
  52.9704920  55.8132600  35.3855240  53.9696700  56.8138120  34.8447680
  37.0070040  53.1777340  44.8338160  36.6584860  53.6341160  45.5996340
  36.6757740  52.2834470  44.9160590  44.5194860  54.3689220  48.3557580
  44.4583750  54.9611050  49.1052990  45.4595240  54.2615180  48.2107840
  47.1569420  54.0259280  47.9949870  47.7709830  54.3438570  47.3330950
  47.7018980  53.5407870  48.6145730  37.6790680  52.7053540  48.1088930
  38.2273670  52.5241590  47.3455040  37.7445990  51.9147650  48.6445240
  47.8977460  52.5891420  44.3219160  47.0237300  52.9226530  44.1192090
  47.7888210  52.1164600  45.1471030  48.8049440  54.7962290  45.7060880
  48.4762800  53.9814050  45.3262610  49.7531740  54.7532100  45.5826570
  45.6452280  53.5061260  43.2612070  44.8624070  53.9806760  43.5408830
  45.3515210  52.6016090  43.1525250  50.1973350  54.2084360  41.3061160
  50.6381440  54.1529460  40.4582760  49.9280940  55.1242370  41.3771340
  52.0611920  53.8399600  39.3169980  52.0000320  52.8960820  39.1701000
  52.8403950  53.9479690  39.8623440  36.9892690  53.8108740  35.7825790
  37.7472050  53.9237620  35.2089820  36.5269860  54.6477940  35.7369220
  43.5306500  55.9248010  38.7728100  42.7181010  55.5504900  38.4323980
  44.0348140  55.1693090  39.0749290  48.0331480  52.5890460  40.0111170
  48.6360850  53.1610670  40.4859690  47.2924470  53.1529900  39.7885070
  51.1766080  52.9912020  35.2851450  51.3716710  53.8895470  35.5518880
  50.3895950  52.7599100  35.7784400  39.3617840  54.3372790  34.3227760
  39.8910600  53.5502590  34.1935710  39.9946160  55.0163980  34.5563290
  41.5555680  54.0747930  37.3773150  40.9258420  53.3735240  37.5443280
  41.0160820  54.8352060  37.1606310  41.6811240  53.3531910  49.8125640
  41.3995510  53.8565510  49.0486460  42.0630940  52.5553660  49.4467770
  48.2826700  52.7685490  50.3906110  48.1692150  53.0880100  51.2857630
  49.0996440  53.1698000  50.0943390  47.1884850  60.7877960  20.7540850
  47.1078900  59.8732570  20.4832560  46.7749270  61.2845030  20.0480560
  45.3202890  62.5656980  22.6350120  44.5444990  62.0857420  22.9248690
  45.9715820  61.8862630  22.4606280  39.3368720  62.8776790  23.5125880
  38.5053600  62.6225500  23.9122390  39.9449700  62.9487560  24.2483800
  37.7460670  57.8378680  17.2968270  36.8577370  58.1794650  17.1948150
  38.0301860  57.6379000  16.4049100  35.7093680  60.4384330  23.1807970
  36.2809790  59.6706530  23.1811610  35.7095220  60.7373090  22.2714580
  36.9518550  55.8468690  24.9676900  36.7721390  54.9494440  25.2479660
  36.5498630  56.3940560  25.6423850  45.7917050  58.0484550  22.8689210
  46.1681870  57.1756430  22.7562880  45.6936560  58.3843250  21.9779650
  39.9222060  56.4210180  18.3306650  40.0288810  57.3213910  18.6375410
  39.0114420  56.3728150  18.0401300  49.5741170  55.5434990  19.8017550
  50.3950790  55.0531560  19.8443030  49.6075250  56.1332650  20.5549390
  37.5705220  58.3429190  23.5759240  38.2515330  58.6067560  24.1946640
  37.2553270  57.5030060  23.9097250  41.7629790  59.3896550  22.6631830
  42.2708010  59.8877520  23.3036850  42.2943030  58.6131750  22.4871190
  53.8640720  57.5601740  26.3661180  53.1592890  57.9483450  25.8476290
  54.1298640  58.2552030  26.9682110  40.0465890  54.0295110  26.9295250
  40.0484330  54.5467500  26.1241150  39.2170200  53.5525290  26.9065180
  46.4336980  64.1414420  18.4285150  45.8154250  64.6063870  17.8647870
  46.9460230  64.8341900  18.8454660  41.2968740  63.6690290  25.1068750
  40.9638120  64.2959210  25.7489820  41.4735420  64.1952170  24.3270420
  49.8102650  57.4835370  22.5745090  49.1058220  57.7720260  23.1548200
  50.1714810  58.2935480  22.2144650  39.7281220  55.7405070  24.9365700
  40.0698030  56.5847120  24.6419570  38.7897030  55.8888810  25.0531040
  52.8789570  56.9290160  22.9654300  51.9314480  56.9629140  23.0969730
  53.2039560  57.7429110  23.3503660  43.4109110  53.2287340  21.2610290
  43.7184090  52.6734230  20.5445790  42.4809810  53.3631800  21.0783280
  48.3609610  63.8484470  24.8800360  48.7778400  63.6344580  24.0453820
  49.0849430  64.1057260  25.4508980  45.7989870  61.2936170  17.9970410
  44.8719150  61.2273550  18.2258880  45.9514690  62.2316300  17.8825650
  45.7858950  57.5653170  14.9937570  44.8462620  57.7267130  15.0790030
  46.1042210  58.2838850  14.4473560  52.3071710  62.2471690  24.9716600
  51.4790340  62.3164780  24.4966730  52.9022190  62.8326000  24.5032430
  49.8287160  62.8556470  18.5005660  49.2099580  62.5176020  17.8531960
  49.8111610  62.2116230  19.2084850  49.2713720  59.0341010  25.9171470
  48.8584900  59.8594720  26.1711460  48.5389670  58.4486050  25.7247830
  41.4046510  61.8200910  20.7790140  41.0003510  61.1078160  20.2836040
  41.4909630  61.4754150  21.6678180  40.1175130  58.5944120  24.5589180
  40.6689720  58.7039460  23.7842430  40.6318640  58.9681720  25.2744410
  48.0051860  62.0943280  15.5078410  48.4445140  61.2565710  15.3616230
  48.7180280  62.7272680  15.5942550  39.7917860  62.1163480  28.1694520
  39.6525630  62.9886280  28.5381920  38.9099220  61.7736290  28.0242460
  51.5869000  53.3486090  13.8219450  51.2741660  53.4412920  14.7218520
  52.3481470  53.9267120  13.7716880  38.1051140  60.7145890  18.2796790
  37.9848740  61.4407980  17.6678060  37.7952030  59.9448800  17.8024700
  35.7436510  63.8861030  24.0865430  35.8216930  64.0209800  23.1421150
  36.3578190  63.1776920  24.2793550  52.7970290  58.0857590  29.7993590
  52.1814560  58.5937260  29.2709050  52.4766710  57.1855920  29.7419530
  35.7996030  64.9275200  26.6259890  35.9627070  64.4580560  25.8079260
  36.2648480  64.4198760  27.2908730  40.5714800  54.0580960  21.6620460
  40.1282950  54.8390500  21.3304980  41.1299790  54.3810850  22.3691400
  44.8584610  56.9249480  27.2655780  44.3963980  57.1332500  28.0775720
  44.4562720  56.1108830  26.9626450  49.8589120  58.1458430  28.3952440
  49.0082710  57.8464180  28.7161510  49.6990910  58.3900440  27.4836260
  46.9538830  59.6460180  30.4951230  47.2792240  58.8123930  30.1553460
  47.7419160  60.1688700  30.6429560  43.6873620  53.6791660  16.5426290
  43.0627800  53.6751530  17.2679600  43.6003740  52.8122620  16.1462260
  42.6090700  54.6028290  23.5210060  42.9063030  55.5091120  23.4402080
  43.1576260  54.1147070  22.9069630  40.3629020  59.1814530  19.3901710
  40.1369940  58.9651700  20.2948330  39.5821550  59.6142990  19.0447680
  47.5926780  59.1877900  17.9892360  46.9935670  59.9113700  17.8055980
  48.1406390  59.1254680  17.2068810  42.8028230  60.0800110  30.0561980
  42.7071830  59.1394840  29.9062380  43.6460210  60.3015180  29.6610050
  46.1991650  57.8241440  20.0195640  46.5921220  58.1413640  19.2064330
  46.5608500  56.9453320  20.1340160  37.9338770  56.4913780  28.2095760
  37.5402160  57.3388990  28.4168540  37.2457170  55.8540150  28.4004400
  44.5083820  56.5748750  31.2792500  43.8182140  56.3820950  31.9138590
  45.2516120  56.8583390  31.8116800  35.2355820  54.4142240  22.2425840
  34.9468870  54.9845100  22.9550820  35.9801580  53.9346690  22.6057070
  35.4226050  58.3562360  13.4528560  35.3400720  59.2993120  13.5943550
  35.0709110  58.2137270  12.5740910  46.7846790  60.4147190  24.1146420
  46.0527910  60.9234000  24.4636520  46.3871130  59.5977170  23.8135200
  43.2224180  57.0901390  22.5198910  43.2260240  56.6491340  21.6703450
  44.1175300  57.4118720  22.6270730  39.0726560  56.9727880  21.4793120
  38.7326610  57.4503110  22.2360170  38.3103880  56.5193000  21.1194220
  43.2844330  58.0913470  15.5105670  43.4057150  58.0499950  16.4591490
  42.8992840  58.9537620  15.3552400  47.2472700  55.8680870  23.5269360
  47.2645440  56.3189520  24.3711210  46.9988280  54.9686510  23.7402800
  42.2965830  60.4014610  14.9088970  41.7282730  59.9532860  14.2824880
  43.0054830  60.7607390  14.3754120  50.6743450  53.2813050  29.3655740
  50.9989220  52.5502710  29.8913720  50.7099960  52.9626690  28.4636730
  37.3735010  64.3026630  28.7855700  36.9889800  63.6620300  29.3838660
  37.6847200  65.0062750  29.3550430  43.5232150  61.1503170  24.2664320
  43.8902280  60.6761740  25.0125660  43.3337210  62.0244740  24.6072660
  36.3872640  55.8946860  20.3957790  36.1019560  55.5302530  21.2336410
  36.3251500  55.1627320  19.7820930  41.3131520  60.1911810  26.5848530
  41.0088590  61.0703790  26.8098890  42.2677980  60.2511600  26.6205970
  39.8413310  64.3972800  17.1815380  39.0675570  63.8570420  17.0214100
  40.5707940  63.8779410  16.8433140  50.6001290  63.3938160  22.9741770
  51.3200410  63.8893450  22.5837880  50.3983110  62.7156050  22.3295640
  46.0611230  54.7876120  17.1171160  45.2475840  54.2889290  17.0416470
  45.8673180  55.6274370  16.7007510  45.9820090  63.4647220  28.8610770
  45.9157400  62.5442890  28.6068360  45.3525230  63.5622660  29.5755410
  48.7759620  59.1595770  15.4133320  49.6639240  59.4713000  15.2384660
  48.7464710  58.2868020  15.0213900  39.8850710  64.0653180  20.8194190
  40.4029380  63.2621440  20.7651080  39.4334730  64.0032320  21.6611020
  37.3695250  61.0314550  27.7319890  37.0110190  61.6968400  28.3193230
  37.0749810  60.1998100  28.1032510  40.5708370  61.4898790  30.6159440
  40.2708510  61.6355970  29.7187260  41.3419610  60.9304080  30.5232830
  51.0473890  60.4707610  14.8813180  50.9637610  60.9021830  14.0309620
  51.7668080  60.9305960  15.3140000  52.1248030  62.9275130  27.9583150
  51.3996220  63.5203910  27.7612540  52.6523490  62.9198670  27.1596520
  47.6547620  64.6535300  21.4567000  48.0071440  64.0563430  20.7968370
  46.7709950  64.3279530  21.6275250  35.8803300  61.0305810  14.3554490
  36.7498150  61.3130610  14.6390410  35.3893620  61.8441680  14.2403300
  43.0438110  62.4179020  18.4762770  43.5000890  63.2284270  18.7022960
  42.6926320  62.1002160  19.3081260  38.9449890  52.7616670  18.9485290
  38.8164520  52.7534570  19.8970210  38.1211910  53.0999760  18.5976300
  35.9443820  54.5207790  28.4091990  35.2302340  54.7204710  29.0144600
  36.3638860  53.7447360  28.7806790  50.0474770  64.1338270  15.8085820
  49.7596470  64.5950960  16.5963700  50.8426940  63.6736040  16.0770040
  37.8649810  62.8479280  16.4836550  37.2577760  63.5878180  16.4931850
  38.3399160  62.9378640  15.6574750  47.4382600  57.0130100  26.1593440
  47.8063420  56.1925310  26.4873010  46.5780800  57.0731990  26.5749090
  50.8044630  55.9687040  16.9681000  50.1757790  56.0732710  16.2539230
  50.3096550  56.1883820  17.7574880  42.7728660  58.2472990  18.3838880
  42.0644810  58.7159330  18.8252490  43.0573140  57.5895000  19.0184070
  44.3984590  59.6669690  26.3831410  44.8969840  60.1415510  27.0483260
  44.5407540  58.7433210  26.5901440  46.8044090  54.9723650  19.8234670
  46.6811870  54.9909780  18.8744180  47.7528650  55.0202590  19.9433070
  40.9763680  56.5558070  15.7589590  41.8254210  56.9928220  15.6929780
  40.6094950  56.8678330  16.5861650  51.6051450  55.8837650  27.2259800
  51.1025050  56.6243050  27.5653610  52.4208110  56.2721650  26.9096590
  49.8973460  61.1270830  20.6721160  48.9563600  61.1421060  20.8468850
  50.2117530  60.3406790  21.1181460  39.8755100  62.8090430  14.2325120
  40.6418370  62.6971790  14.7950550  39.9529790  62.1128400  13.5801890
  38.5701860  60.2415500  14.9158010  38.6505450  59.2943010  15.0275410
  39.4621610  60.5722380  15.0218670  36.0972660  62.0630420  30.1514180
  36.6011680  61.4837700  30.7230410  35.3580080  62.3470650  30.6890550
  42.9996280  64.7844610  13.7060470  42.8946920  64.1696960  14.4321850
  42.8320500  64.2610500  12.9223480  43.1510600  63.4701410  29.6849700
  42.3856270  64.0386410  29.6004370  43.3326560  63.1777620  28.7917930
  46.2399010  63.8464640  14.3102460  45.6909110  64.2933940  14.9545200
  46.8618270  63.3413890  14.8340130  38.1295740  60.2060010  31.0464250
  38.1701080  59.9073880  31.9549480  38.9841240  60.6067620  30.8871770
  41.9074130  62.8055560  16.2067760  42.3290550  62.6395430  17.0499150
  42.0324970  61.9955790  15.7122900  40.0701550  58.7852110  29.0138740
  39.5398010  58.2943060  28.3862080  40.7389620  59.2136310  28.4796670
  44.4201770  61.8293170  13.4544860  44.9407430  61.1142190  13.0886010
  45.0670170  62.4679040  13.7545370  48.9679610  63.2521570  28.7779930
  49.3820630  63.4066650  29.6270350  48.0330610  63.3776790  28.9405710
  49.4401780  60.5917730  30.7819080  50.0222550  59.8370050  30.6939560
  49.6163550  61.1225170  30.0050560  40.5573850  55.7514480  29.0936030
  40.4630720  55.1335230  28.3686900  39.9771240  56.4780770  28.8665940
  43.3235290  54.3087720  26.1263420  42.8752590  54.3311980  25.2808970
  42.6900490  53.9106740  26.7233720  43.7294840  63.2042050  26.7475860
  44.1482950  64.0474780  26.5752100  42.8103470  63.3414090  26.5182640
  46.0658740  60.9358230  28.1313700  46.1854950  60.3399370  28.8708540
  46.9252740  60.9727920  27.7115000  48.4046640  61.4895420  26.7076210
  47.8781860  62.0138040  26.1041350  48.7477980  62.1222810  27.3385940
  40.8033030  58.8788790  13.1525920  40.6022090  58.0156150  13.5139260
  40.6325080  58.7922150  12.2147520  42.8327510  57.4779580  29.3889520
  43.4227200  57.1695430  30.0767340  42.0147750  57.0059330  29.5449420
  47.6520940  57.0945390  29.6222540  46.9636460  56.4326930  29.5572530
  48.3726960  56.6483660  30.0671000  48.2821340  53.6897020  15.6812800
  48.5623630  52.8464920  16.0372220  47.5087070  53.9220130  16.1951550
  39.6015830  55.9789410  13.1403800  39.9041730  55.9856840  12.2322950
  40.3410420  55.6287270  13.6371460  42.8200760  54.9224030  14.1260000
  42.4722760  54.2448020  13.5462450  43.0213530  54.4613540  14.9403390
  52.6602060  62.9273750  16.2916710  53.4220970  63.4970400  16.3976400
  52.6756430  62.3600950  17.0625020  36.1606400  61.4511680  20.5224370
  35.5055240  61.1823320  19.8784070  36.9984350  61.3416160  20.0726350
  53.6662030  63.7823850  21.1358640  54.0370860  62.9991170  20.7294610
  54.3063960  64.4712950  20.9575940  52.7121230  63.2208120  13.4489230
  52.9870070  64.1287000  13.3208450  52.5231970  63.1570650  14.3851220
  49.1096840  56.2452970  14.7442860  49.5281720  56.0583950  13.9039520
  48.8032900  55.3932020  15.0545790  52.6086570  61.1577110  18.4418660
  52.2330170  60.3905040  18.0099950  51.8789690  61.5399810  18.9293590
  37.1982330  61.8364250  25.0627710  37.5655370  61.7491650  25.9423730
  36.6293150  61.0730800  24.9634570  51.9986190  60.3048630  28.0758180
  51.7672280  60.0761380  27.1756130  52.2590740  61.2248180  28.0303070
  36.7498330  58.7473340  28.9686130  35.8554380  58.7140100  29.3079840
  37.2895880  58.9460130  29.7337380  50.4374260  55.5305060  30.8537880
  51.3144440  55.5388460  31.2371880  50.4495100  54.7935900  30.2430230
  35.3744480  58.6610610  16.4649700  34.4708560  58.9240810  16.2901360
  35.8585100  58.9321780  15.6849660  51.8837530  59.3834600  21.7425900
  52.4075010  58.8897250  21.1116070  52.4696950  59.5184960  22.4873470
  52.0627250  59.4674470  25.2645450  51.1129960  59.4338010  25.3790440
  52.2440260  60.3774580  25.0295220  37.9171690  57.7176150  14.3744080
  38.6263390  57.2959370  13.8891360  37.2011630  57.7851380  13.7427430
  37.5645850  53.7715480  13.4146730  38.2873980  54.3124420  13.7327950
  37.8370370  53.4978900  12.5388270  51.3737500  58.6407950  17.6818310
  51.8696620  58.4078820  18.4667190  51.1753570  57.8019790  17.2655950
  37.2538040  53.0221670  23.3169350  37.9014230  52.4719050  22.8764510
  37.6739880  53.2764820  24.1385160  52.8024660  57.2768900  20.2155990
  52.6923940  57.1224940  21.1538260  53.5632250  56.7489840  19.9731400
  51.1490380  53.2163030  26.6738990  51.7862600  53.8297170  27.0398180
  51.2965270  53.2523690  25.7288220  53.6914930  55.1076820  13.4562130
  54.6164240  54.9758000  13.2480420  53.6690720  55.1869640  14.4098580
  53.7653420  55.8787480  16.0818840  52.9704920  55.8132600  16.6111750
  53.9696700  56.8138120  16.0704190  37.0070040  53.1777340  26.0594670
  36.6584860  53.6341160  26.8252850  36.6757740  52.2834470  26.1417100
  44.5194860  54.3689220  29.5814090  44.4583750  54.9611050  30.3309500
  45.4595240  54.2615180  29.4364350  47.1569420  54.0259280  29.2206380
  47.7709830  54.3438570  28.5587460  47.7018980  53.5407870  29.8402240
  37.6790680  52.7053540  29.3345440  38.2273670  52.5241590  28.5711550
  37.7445990  51.9147650  29.8701750  47.8977460  52.5891420  25.5475670
  47.0237300  52.9226530  25.3448600  47.7888210  52.1164600  26.3727540
  48.8049440  54.7962290  26.9317390  48.4762800  53.9814050  26.5519120
  49.7531740  54.7532100  26.8083080  45.6452280  53.5061260  24.4868580
  44.8624070  53.9806760  24.7665340  45.3515210  52.6016090  24.3781760
  50.1973350  54.2084360  22.5317670  50.6381440  54.1529460  21.6839270
  49.9280940  55.1242370  22.6027850  52.0611920  53.8399600  20.5426490
  52.0000320  52.8960820  20.3957510  52.8403950  53.9479690  21.0879950
  36.9892690  53.8108740  17.0082300  37.7472050  53.9237620  16.4346330
  36.5269860  54.6477940  16.9625730  43.5306500  55.9248010  19.9984610
  42.7181010  55.5504900  19.6580490  44.0348140  55.1693090  20.3005800
  48.0331480  52.5890460  21.2367680  48.6360850  53.1610670  21.7116200
  47.2924470  53.1529900  21.0141580  51.1766080  52.9912020  16.5107960
  51.3716710  53.8895470  16.7775390  50.3895950  52.7599100  17.0040910
  39.3617840  54.3372790  15.5484270  39.8910600  53.5502590  15.4192220
  39.9946160  55.0163980  15.7819800  41.5555680  54.0747930  18.6029660
  40.9258420  53.3735240  18.7699790  41.0160820  54.8352060  18.3862820
  41.6811240  53.3531910  31.0382150  41.3995510  53.8565510  30.2742970
  42.0630940  52.5553660  30.6724280  48.2826700  52.7685490  31.6162620
  48.1692150  53.0880100  32.5114140  49.0996440  53.1698000  31.3199900
  45.3202890  62.5656980   3.8606630  44.5444990  62.0857420   4.1505200
  45.9715820  61.8862630   3.6862790  39.3368720  62.8776790   4.7382390
  38.5053600  62.6225500   5.1378900  39.9449700  62.9487560   5.4740310
  35.7093680  60.4384330   4.4064480  36.2809790  59.6706530   4.4068120
  35.7095220  60.7373090   3.4971090  36.9518550  55.8468690   6.1933410
  36.7721390  54.9494440   6.4736170  36.5498630  56.3940560   6.8680360
  45.7917050  58.0484550   4.0945720  46.1681870  57.1756430   3.9819390
  45.6936560  58.3843250   3.2036160  37.5705220  58.3429190   4.8015750
  38.2515330  58.6067560   5.4203150  37.2553270  57.5030060   5.1353760
  41.7629790  59.3896550   3.8888340  42.2708010  59.8877520   4.5293360
  42.2943030  58.6131750   3.7127700  53.8640720  57.5601740   7.5917690
  53.1592890  57.9483450   7.0732800  54.1298640  58.2552030   8.1938620
  40.0465890  54.0295110   8.1551760  40.0484330  54.5467500   7.3497660
  39.2170200  53.5525290   8.1321690  41.2968740  63.6690290   6.3325260
  40.9638120  64.2959210   6.9746330  41.4735420  64.1952170   5.5526930
  49.8102650  57.4835370   3.8001600  49.1058220  57.7720260   4.3804710
  50.1714810  58.2935480   3.4401160  39.7281220  55.7405070   6.1622210
  40.0698030  56.5847120   5.8676080  38.7897030  55.8888810   6.2787550
  52.8789570  56.9290160   4.1910810  51.9314480  56.9629140   4.3226240
  53.2039560  57.7429110   4.5760170  43.4109110  53.2287340   2.4866800
  43.7184090  52.6734230   1.7702300  42.4809810  53.3631800   2.3039790
  48.3609610  63.8484470   6.1056870  48.7778400  63.6344580   5.2710330
  49.0849430  64.1057260   6.6765490  52.3071710  62.2471690   6.1973110
  51.4790340  62.3164780   5.7223240  52.9022190  62.8326000   5.7288940
  49.2713720  59.0341010   7.1427980  48.8584900  59.8594720   7.3967970
  48.5389670  58.4486050   6.9504340  40.1175130  58.5944120   5.7845690
  40.6689720  58.7039460   5.0098940  40.6318640  58.9681720   6.5000920
  39.7917860  62.1163480   9.3951030  39.6525630  62.9886280   9.7638430
  38.9099220  61.7736290   9.2498970  35.7436510  63.8861030   5.3121940
  35.8216930  64.0209800   4.3677660  36.3578190  63.1776920   5.5050060
  52.7970290  58.0857590  11.0250100  52.1814560  58.5937260  10.4965560
  52.4766710  57.1855920  10.9676040  35.7996030  64.9275200   7.8516400
  35.9627070  64.4580560   7.0335770  36.2648480  64.4198760   8.5165240
  40.5714800  54.0580960   2.8876970  40.1282950  54.8390500   2.5561490
  41.1299790  54.3810850   3.5947910  44.8584610  56.9249480   8.4912290
  44.3963980  57.1332500   9.3032230  44.4562720  56.1108830   8.1882960
  49.8589120  58.1458430   9.6208950  49.0082710  57.8464180   9.9418020
  49.6990910  58.3900440   8.7092770  46.9538830  59.6460180  11.7207740
  47.2792240  58.8123930  11.3809970  47.7419160  60.1688700  11.8686070
  42.6090700  54.6028290   4.7466570  42.9063030  55.5091120   4.6658590
  43.1576260  54.1147070   4.1326140  42.8028230  60.0800110  11.2818490
  42.7071830  59.1394840  11.1318890  43.6460210  60.3015180  10.8866560
  37.9338770  56.4913780   9.4352270  37.5402160  57.3388990   9.6425050
  37.2457170  55.8540150   9.6260910  44.5083820  56.5748750  12.5049010
  43.8182140  56.3820950  13.1395100  45.2516120  56.8583390  13.0373310
  35.2355820  54.4142240   3.4682350  34.9468870  54.9845100   4.1807330
  35.9801580  53.9346690   3.8313580  46.7846790  60.4147190   5.3402930
  46.0527910  60.9234000   5.6893030  46.3871130  59.5977170   5.0391710
  43.2224180  57.0901390   3.7455420  43.2260240  56.6491340   2.8959960
  44.1175300  57.4118720   3.8527240  39.0726560  56.9727880   2.7049630
  38.7326610  57.4503110   3.4616680  38.3103880  56.5193000   2.3450730
  47.2472700  55.8680870   4.7525870  47.2645440  56.3189520   5.5967720
  46.9988280  54.9686510   4.9659310  50.6743450  53.2813050  10.5912250
  50.9989220  52.5502710  11.1170230  50.7099960  52.9626690   9.6893240
  37.3735010  64.3026630  10.0112210  36.9889800  63.6620300  10.6095170
  37.6847200  65.0062750  10.5806940  43.5232150  61.1503170   5.4920830
  43.8902280  60.6761740   6.2382170  43.3337210  62.0244740   5.8329170
  41.3131520  60.1911810   7.8105040  41.0088590  61.0703790   8.0355400
  42.2677980  60.2511600   7.8462480  50.6001290  63.3938160   4.1998280
  51.3200410  63.8893450   3.8094390  50.3983110  62.7156050   3.5552150
  45.9820090  63.4647220  10.0867280  45.9157400  62.5442890   9.8324870
  45.3525230  63.5622660  10.8011920  39.8850710  64.0653180   2.0450700
  40.4029380  63.2621440   1.9907590  39.4334730  64.0032320   2.8867530
  37.3695250  61.0314550   8.9576400  37.0110190  61.6968400   9.5449740
  37.0749810  60.1998100   9.3289020  40.5708370  61.4898790  11.8415950
  40.2708510  61.6355970  10.9443770  41.3419610  60.9304080  11.7489340
  52.1248030  62.9275130   9.1839660  51.3996220  63.5203910   8.9869050
  52.6523490  62.9198670   8.3853030  47.6547620  64.6535300   2.6823510
  48.0071440  64.0563430   2.0224880  46.7709950  64.3279530   2.8531760
  35.9443820  54.5207790   9.6348500  35.2302340  54.7204710  10.2401110
  36.3638860  53.7447360  10.0063300  47.4382600  57.0130100   7.3849950
  47.8063420  56.1925310   7.7129520  46.5780800  57.0731990   7.8005600
  44.3984590  59.6669690   7.6087920  44.8969840  60.1415510   8.2739770
  44.5407540  58.7433210   7.8157950  51.6051450  55.8837650   8.4516310
  51.1025050  56.6243050   8.7910120  52.4208110  56.2721650   8.1353100
  49.8973460  61.1270830   1.8977670  48.9563600  61.1421060   2.0725360
  50.2117530  60.3406790   2.3437970  36.0972660  62.0630420  11.3770690
  36.6011680  61.4837700  11.9486920  35.3580080  62.3470650  11.9147060
  43.1510600  63.4701410  10.9106210  42.3856270  64.0386410  10.8260880
  43.3326560  63.1777620  10.0174440  38.1295740  60.2060010  12.2720760
  38.1701080  59.9073880  13.1805990  38.9841240  60.6067620  12.1128280
  40.0701550  58.7852110  10.2395250  39.5398010  58.2943060   9.6118590
  40.7389620  59.2136310   9.7053180  48.9679610  63.2521570  10.0036440
  49.3820630  63.4066650  10.8526860  48.0330610  63.3776790  10.1662220
  49.4401780  60.5917730  12.0075590  50.0222550  59.8370050  11.9196070
  49.6163550  61.1225170  11.2307070  40.5573850  55.7514480  10.3192540
  40.4630720  55.1335230   9.5943410  39.9771240  56.4780770  10.0922450
  43.3235290  54.3087720   7.3519930  42.8752590  54.3311980   6.5065480
  42.6900490  53.9106740   7.9490230  43.7294840  63.2042050   7.9732370
  44.1482950  64.0474780   7.8008610  42.8103470  63.3414090   7.7439150
  46.0658740  60.9358230   9.3570210  46.1854950  60.3399370  10.0965050
  46.9252740  60.9727920   8.9371510  48.4046640  61.4895420   7.9332720
  47.8781860  62.0138040   7.3297860  48.7477980  62.1222810   8.5642450
  42.8327510  57.4779580  10.6146030  43.4227200  57.1695430  11.3023850
  42.0147750  57.0059330  10.7705930  47.6520940  57.0945390  10.8479050
  46.9636460  56.4326930  10.7829040  48.3726960  56.6483660  11.2927510
  53.6662030  63.7823850   2.3615150  54.0370860  62.9991170   1.9551120
  54.3063960  64.4712950   2.1832450  37.1982330  61.8364250   6.2884220
  37.5655370  61.7491650   7.1680240  36.6293150  61.0730800   6.1891080
  51.9986190  60.3048630   9.3014690  51.7672280  60.0761380   8.4012640
  52.2590740  61.2248180   9.2559580  36.7498330  58.7473340  10.1942640
  35.8554380  58.7140100  10.5336350  37.2895880  58.9460130  10.9593890
  50.4374260  55.5305060  12.0794390  51.3144440  55.5388460  12.4628390
  50.4495100  54.7935900  11.4686740  51.8837530  59.3834600   2.9682410
  52.4075010  58.8897250   2.3372580  52.4696950  59.5184960   3.7129980
  52.0627250  59.4674470   6.4901960  51.1129960  59.4338010   6.6046950
  52.2440260  60.3774580   6.2551730  37.2538040  53.0221670   4.5425860
  37.9014230  52.4719050   4.1021020  37.6739880  53.2764820   5.3641670
  51.1490380  53.2163030   7.8995500  51.7862600  53.8297170   8.2654690
  51.2965270  53.2523690   6.9544730  37.0070040  53.1777340   7.2851180
  36.6584860  53.6341160   8.0509360  36.6757740  52.2834470   7.3673610
  44.5194860  54.3689220  10.8070600  44.4583750  54.9611050  11.5566010
  45.4595240  54.2615180  10.6620860  47.1569420  54.0259280  10.4462890
  47.7709830  54.3438570   9.7843970  47.7018980  53.5407870  11.0658750
  37.6790680  52.7053540  10.5601950  38.2273670  52.5241590   9.7968060
  37.7445990  51.9147650  11.0958260  47.8977460  52.5891420   6.7732180
  47.0237300  52.9226530   6.5705110  47.7888210  52.1164600   7.5984050
  48.8049440  54.7962290   8.1573900  48.4762800  53.9814050   7.7775630
  49.7531740  54.7532100   8.0339590  45.6452280  53.5061260   5.7125090
  44.8624070  53.9806760   5.9921850  45.3515210  52.6016090   5.6038270
  50.1973350  54.2084360   3.7574180  50.6381440  54.1529460   2.9095780
  49.9280940  55.1242370   3.8284360  52.0611920  53.8399600   1.7683000
  52.0000320  52.8960820   1.6214020  52.8403950  53.9479690   2.3136460
  48.0331480  52.5890460   2.4624190  48.6360850  53.1610670   2.9372710
  47.2924470  53.1529900   2.2398090  41.6811240  53.3531910  12.2638660
  41.3995510  53.8565510  11.4999480  42.0630940  52.5553660  11.8980790
  48.2826700  52.7685490  12.8419130  48.1692150  53.0880100  13.7370650
  49.0996440  53.1698000  12.5456410  47.1884850  42.0134470  58.3027830
  47.1078900  41.0989080  58.0319540  46.7749270  42.5101540  57.5967540
  45.3202890  43.7913490  60.1837100  44.5444990  43.3113930  60.4735670
  45.9715820  43.1119140  60.0093260  39.3368720  44.1033300  61.0612860
  38.5053600  43.8482010  61.4609370  39.9449700  44.1744070  61.7970780
  49.3410320  48.1973680  58.9636230  48.8791850  47.4260920  59.2923400
  50.1535870  48.2239750  59.4688680  39.3169980  48.1373390  61.2570880
  39.6198020  47.2471130  61.0781100  40.0613570  48.6943610  61.0293130
  37.7460670  39.0635190  54.8455250  36.8577370  39.4051160  54.7435130
  38.0301860  38.8635510  53.9536080  35.7093680  41.6640840  60.7294950
  36.2809790  40.8963040  60.7298590  35.7095220  41.9629600  59.8201560
  45.5673630  50.4831690  58.5840220  44.9485070  50.9389190  58.0134660
  46.4225410  50.6383150  58.1829920  44.7611880  46.4670680  60.1907260
  44.6920160  45.5260620  60.0296390  45.5231740  46.5572090  60.7629830
  45.7917050  39.2741060  60.4176190  46.1681870  38.4012940  60.3049860
  45.6936560  39.6099760  59.5266630  39.9222060  37.6466690  55.8793630
  40.0288810  38.5470420  56.1862390  39.0114420  37.5984660  55.5888280
  49.5741170  36.7691500  57.3504530  50.3950790  36.2788070  57.3930010
  49.6075250  37.3589160  58.1036370  37.5705220  39.5685700  61.1246220
  38.2515330  39.8324070  61.7433620  37.2553270  38.7286570  61.4584230
  41.7629790  40.6153060  60.2118810  42.2708010  41.1134030  60.8523830
  42.2943030  39.8388260  60.0358170  46.4336980  45.3670930  55.9772130
  45.8154250  45.8320380  55.4134850  46.9460230  46.0598410  56.3941640
  49.8102650  38.7091880  60.1232070  49.1058220  38.9976770  60.7035180
  50.1714810  39.5191990  59.7631630  35.8020180  46.0527460  53.3511760
  35.4248160  46.5414560  52.6196660  36.0593250  46.7252740  53.9818290
  52.8789570  38.1546670  60.5141280  51.9314480  38.1885650  60.6456710
  53.2039560  38.9685620  60.8990640  43.4109110  34.4543850  58.8097270
  43.7184090  33.8990740  58.0932770  42.4809810  34.5888310  58.6270260
  48.9624170  50.1711140  61.1004730  48.9751330  49.7673430  60.2326990
  48.4099390  50.9458430  60.9966160  50.2569590  46.8927360  56.1894900
  50.1465920  45.9501690  56.3144320  50.2537840  47.2543000  57.0757660
  45.7989870  42.5192680  55.5457390  44.8719150  42.4530060  55.7745860
  45.9514690  43.4572810  55.4312630  45.7858950  38.7909680  52.5424550
  44.8462620  38.9523640  52.6277010  46.1042210  39.5095360  51.9960540
  49.8287160  44.0812980  56.0492640  49.2099580  43.7432530  55.4018940
  49.8111610  43.4372740  56.7571830  41.4046510  43.0457420  58.3277120
  41.0003510  42.3334670  57.8323020  41.4909630  42.7010660  59.2165160
  41.8728210  46.7324980  60.4916330  41.5756500  46.1270450  59.8124110
  42.8228030  46.7702290  60.3805690  48.0051860  43.3199790  53.0565390
  48.4445140  42.4822220  52.9103210  48.7180280  43.9529190  53.1429530
  46.1147240  48.2595860  57.0246630  46.5543150  49.0020190  56.6102020
  46.0534130  48.5022430  57.9485590  51.5869000  34.5742600  51.3706430
  51.2741660  34.6669430  52.2705500  52.3481470  35.1523630  51.3203860
  38.1051140  41.9402400  55.8283770  37.9848740  42.6664490  55.2165040
  37.7952030  41.1705310  55.3511680  35.7436510  45.1117540  61.6352410
  35.8216930  45.2466310  60.6908130  36.3578190  44.4033430  61.8280530
  36.9884140  46.8117730  58.0458590  36.5812220  46.9532320  57.1912190
  37.8797150  46.5277890  57.8429800  48.7817420  51.2464980  54.3809640
  48.6218560  50.9567920  55.2791470  48.6164130  50.4705110  53.8454870
  41.2605800  51.0263510  56.1581260  41.0848280  50.1099050  55.9449060
  40.4061540  51.3850800  56.3979060  48.4843550  48.7552540  52.9407640
  47.7908710  48.7529830  52.2809920  49.2266410  48.3311860  52.5101810
  48.0493480  50.3815250  57.0156130  48.5050430  49.6004630  57.3294750
  48.3886000  51.0922070  57.5597310  40.5714800  35.2837470  59.2107440
  40.1282950  36.0647010  58.8791960  41.1299790  35.6067360  59.9178380
  43.6873620  34.9048170  54.0913270  43.0627800  34.9008040  54.8166580
  43.6003740  34.0379130  53.6949240  42.6090700  35.8284800  61.0697040
  42.9063030  36.7347630  60.9889060  43.1576260  35.3403580  60.4556610
  40.3629020  40.4071040  56.9388690  40.1369940  40.1908210  57.8435310
  39.5821550  40.8399500  56.5934660  47.5926780  40.4134410  55.5379340
  46.9935670  41.1370210  55.3542960  48.1406390  40.3511190  54.7555790
  46.1991650  39.0497950  57.5682620  46.5921220  39.3670150  56.7551310
  46.5608500  38.1709830  57.6827140  35.2355820  35.6398750  59.7912820
  34.9468870  36.2101610  60.5037800  35.9801580  35.1603200  60.1544050
  35.4226050  39.5818870  51.0015540  35.3400720  40.5249630  51.1430530
  35.0709110  39.4393780  50.1227890  43.2224180  38.3157900  60.0685890
  43.2260240  37.8747850  59.2190430  44.1175300  38.6375230  60.1757710
  39.0726560  38.1984390  59.0280100  38.7326610  38.6759620  59.7847150
  38.3103880  37.7449510  58.6681200  43.2844330  39.3169980  53.0592650
  43.4057150  39.2756460  54.0078470  42.8992840  40.1794130  52.9039380
  47.2472700  37.0937380  61.0756340  47.2645440  37.5446030  61.9198190
  46.9988280  36.1943020  61.2889780  42.2965830  41.6271120  52.4575950
  41.7282730  41.1789370  51.8311860  43.0054830  41.9863900  51.9241100
  36.3872640  37.1203370  57.9444770  36.1019560  36.7559040  58.7823390
  36.3251500  36.3883830  57.3307910  39.8413310  45.6229310  54.7302360
  39.0675570  45.0826930  54.5701080  40.5707940  45.1035920  54.3920120
  50.6001290  44.6194670  60.5228750  51.3200410  45.1149960  60.1324860
  50.3983110  43.9412560  59.8782620  46.0611230  36.0132630  54.6658140
  45.2475840  35.5145800  54.5903450  45.8673180  36.8530880  54.2494490
  48.7759620  40.3852280  52.9620300  49.6639240  40.6969510  52.7871640
  48.7464710  39.5124530  52.5700880  39.8850710  45.2909690  58.3681170
  40.4029380  44.4877950  58.3138060  39.4334730  45.2288830  59.2098000
  44.7720210  46.5575970  53.6408470  45.1135910  47.3018200  53.1451790
  43.9432920  46.8707090  54.0033300  51.0473890  41.6964120  52.4300160
  50.9637610  42.1278340  51.5796600  51.7668080  42.1562470  52.8626980
  52.0761140  48.5506380  55.1582290  51.4337300  47.8962000  55.4326010
  51.6891800  48.9561470  54.3822960  47.6547620  45.8791810  59.0053980
  48.0071440  45.2819940  58.3455350  46.7709950  45.5536040  59.1762230
  43.7410900  46.6389500  56.4124390  44.4282030  47.1858710  56.7931980
  42.9543320  47.1830230  56.4474000  35.8803300  42.2562320  51.9041470
  36.7498150  42.5387120  52.1877390  35.3893620  43.0698190  51.7890280
  43.0438110  43.6435530  56.0249750  43.5000890  44.4540780  56.2509940
  42.6926320  43.3258670  56.8568240  38.9449890  33.9873180  56.4972270
  38.8164520  33.9791080  57.4457190  38.1211910  34.3256270  56.1463280
  50.4658520  47.4422840  51.6958640  50.2396100  46.7253280  52.2883280
  50.0754720  47.1935280  50.8580390  36.2474550  51.4689700  52.4703100
  36.6072190  52.0679040  51.8160370  36.1066890  52.0149590  53.2438130
  50.0474770  45.3594780  53.3572800  49.7596470  45.8207470  54.1450680
  50.8426940  44.8992550  53.6257020  42.2643170  48.8520900  53.2876770
  42.2553270  49.5850590  52.6721280  41.3441530  48.6052480  53.3803730
  37.8649810  44.0735790  54.0323530  37.2577760  44.8134690  54.0418830
  38.3399160  44.1635150  53.2061730  50.8044630  37.1943550  54.5167980
  50.1757790  37.2989220  53.8026210  50.3096550  37.4140330  55.3061860
  45.2502770  48.9149140  51.9501960  45.3514750  48.7113130  51.0203940
  44.3504510  48.6607420  52.1549740  42.7728660  39.4729500  55.9325860
  42.0644810  39.9415840  56.3739470  43.0573140  38.8151510  56.5671050
  46.8044090  36.1980160  57.3721650  46.6811870  36.2166290  56.4231160
  47.7528650  36.2459100  57.4920050  43.8920880  51.4335460  56.6449630
  44.1462380  51.3956850  55.7229000  42.9433360  51.3068790  56.6377880
  40.9763680  37.7814580  53.3076570  41.8254210  38.2184730  53.2416760
  40.6094950  38.0934840  54.1348630  49.8973460  42.3527340  58.2208140
  48.9563600  42.3677570  58.3955830  50.2117530  41.5663300  58.6668440
  39.8755100  44.0346940  51.7812100  40.6418370  43.9228300  52.3437530
  39.9529790  43.3384910  51.1288870  38.5701860  41.4672010  52.4644990
  38.6505450  40.5199520  52.5762390  39.4621610  41.7978890  52.5705650
  51.8999040  49.5236190  59.8962400  52.0246460  50.3467360  60.3686210
  52.7664600  49.3126920  59.5486550  39.3716570  51.6167400  59.5679530
  40.1079050  51.0682860  59.8388100  39.7557490  52.4823410  59.4285520
  36.2562050  47.6840970  55.4421040  35.3301830  47.9262110  55.4326450
  36.7218480  48.5115230  55.3205790  42.4818880  50.7897710  51.3905100
  43.2747490  51.0786540  50.9386890  41.9623230  50.3589880  50.7117580
  51.5349050  50.0167840  52.8141840  51.2490560  49.6032980  51.9996020
  51.3368600  50.9455550  52.6942360  42.9996280  46.0101120  51.2547450
  42.8946920  45.3953470  51.9808830  42.8320500  45.4867010  50.4710460
  46.2399010  45.0721150  51.8589440  45.6909110  45.5190450  52.5032180
  46.8618270  44.5670400  52.3827110  41.9074130  44.0312070  53.7554740
  42.3290550  43.8651940  54.5986130  42.0324970  43.2212300  53.2609880
  44.4201770  43.0549680  51.0031840  44.9407430  42.3398700  50.6372990
  45.0670170  43.6935550  51.3032350  40.8033030  40.1045300  50.7012900
  40.6022090  39.2412660  51.0626240  40.6325080  40.0178660  49.7634500
  48.2821340  34.9153530  53.2299780  48.5623630  34.0721430  53.5859200
  47.5087070  35.1476640  53.7438530  39.6015830  37.2045920  50.6890780
  39.9041730  37.2113350  49.7809930  40.3410420  36.8543780  51.1858440
  42.8200760  36.1480540  51.6746980  42.4722760  35.4704530  51.0949430
  43.0213530  35.6870050  52.4890370  44.9849800  51.1361290  53.2933580
  45.8800590  51.4746260  53.3152340  45.0167430  50.4140700  52.6657860
  38.6245960  46.5088340  51.5220580  39.0620830  47.0518010  52.1778160
  39.1093690  45.6835290  51.5316920  35.8391760  49.2977370  58.9740840
  36.1694770  48.4298430  58.7419480  36.2682760  49.5035890  59.8045800
  40.4353680  47.6286380  56.6342810  40.1349220  47.5051350  57.5346720
  40.3291170  46.7694970  56.2258540  53.2045600  47.4082780  51.3369490
  52.3738560  47.4759430  51.8076720  53.3817430  48.2986900  51.0336350
  52.6602060  44.1530260  53.8403690  53.4220970  44.7226910  53.9463380
  52.6756430  43.5857460  54.6112000  36.1606400  42.6768190  58.0711350
  35.5055240  42.4079830  57.4271050  36.9984350  42.5672670  57.6213330
  53.6662030  45.0080360  58.6845620  54.0370860  44.2247680  58.2781590
  54.3063960  45.6969460  58.5062920  52.7121230  44.4464630  50.9976210
  52.9870070  45.3543510  50.8695430  52.5231970  44.3827160  51.9338200
  49.1096840  37.4709480  52.2929840  49.5281720  37.2840460  51.4526500
  48.8032900  36.6188530  52.6032770  52.6086570  42.3833620  55.9905640
  52.2330170  41.6161550  55.5586930  51.8789690  42.7656320  56.4780570
  35.3744480  39.8867120  54.0136680  34.4708560  40.1497320  53.8388340
  35.8585100  40.1578290  53.2336640  51.8837530  40.6091110  59.2912880
  52.4075010  40.1153760  58.6603050  52.4696950  40.7441470  60.0360450
  37.9171690  38.9432660  51.9231060  38.6263390  38.5215880  51.4378340
  37.2011630  39.0107890  51.2914410  37.5645850  34.9971990  50.9633710
  38.2873980  35.5380930  51.2814930  37.8370370  34.7235410  50.0875250
  51.3737500  39.8664460  55.2305290  51.8696620  39.6335330  56.0154170
  51.1753570  39.0276300  54.8142930  37.2538040  34.2478180  60.8656330
  37.9014230  33.6975560  60.4251490  37.6739880  34.5021330  61.6872140
  52.8024660  38.5025410  57.7642970  52.6923940  38.3481450  58.7025240
  53.5632250  37.9746350  57.5218380  53.6914930  36.3333330  51.0049110
  54.6164240  36.2014510  50.7967400  53.6690720  36.4126150  51.9585560
  53.7653420  37.1043990  53.6305820  52.9704920  37.0389110  54.1598730
  53.9696700  38.0394630  53.6191170  50.7071840  51.1435540  57.6244210
  51.3030910  50.8220110  56.9478630  50.9649990  50.6707360  58.4157480
  51.2584050  51.7930840  61.4541940  50.7987020  52.5446650  61.0799960
  50.6296510  51.0737310  61.3956740  41.6879770  50.1019080  60.6290070
  42.2044790  49.4906440  60.1038330  42.3377150  50.6047860  61.1201080
  50.1973350  35.4340870  60.0804650  50.6381440  35.3785970  59.2326250
  49.9280940  36.3498880  60.1514830  52.0611920  35.0656110  58.0913470
  52.0000320  34.1217330  57.9444490  52.8403950  35.1736200  58.6366930
  36.3664670  51.2048470  57.0537420  36.1986710  50.5719150  57.7519310
  35.4999180  51.4107870  56.7031610  36.9892690  35.0365250  54.5569280
  37.7472050  35.1494130  53.9833310  36.5269860  35.8734450  54.5112710
  43.5306500  37.1504520  57.5471590  42.7181010  36.7761410  57.2067470
  44.0348140  36.3949600  57.8492780  48.0331480  33.8146970  58.7854660
  48.6360850  34.3867180  59.2603180  47.2924470  34.3786410  58.5628560
  51.1766080  34.2168530  54.0594940  51.3716710  35.1151980  54.3262370
  50.3895950  33.9855610  54.5527890  37.9727370  49.8981700  54.4987560
  37.4474990  50.2789730  53.7949520  37.8971950  50.5232470  55.2197270
  39.3617840  35.5629300  53.0971250  39.8910600  34.7759100  52.9679200
  39.9946160  36.2420490  53.3306780  41.5555680  35.3004440  56.1516640
  40.9258420  34.5991750  56.3186770  41.0160820  36.0608570  55.9349800
  52.7292690  51.4569240  55.8201500  52.9044880  50.7706980  55.1762420
  52.0314260  51.9816290  55.4278170  40.5720340  51.8464080  53.3736810
  41.3039160  51.5623360  52.8260700  40.8314010  51.6077360  54.2636190
  39.7335130  47.9628810  53.3783140  39.1044010  48.4313910  53.9268970
  39.8482960  47.1178030  53.8129330  49.3410320  48.1973680  40.1892740
  48.8791850  47.4260920  40.5179910  50.1535870  48.2239750  40.6945190
  45.5673630  50.4831690  39.8096730  44.9485070  50.9389190  39.2391170
  46.4225410  50.6383150  39.4086430  53.8640720  38.7858250  45.1404670
  53.1592890  39.1739960  44.6219780  54.1298640  39.4808540  45.7425600
  46.4336980  45.3670930  37.2028640  45.8154250  45.8320380  36.6391360
  46.9460230  46.0598410  37.6198150  51.4265430  48.3267010  43.6116060
  50.7428950  48.9966120  43.6032730  51.9659720  48.5247660  42.8460920
  52.8789570  38.1546670  41.7397790  51.9314480  38.1885650  41.8713220
  53.2039560  38.9685620  42.1247150  48.9624170  50.1711140  42.3261240
  48.9751330  49.7673430  41.4583500  48.4099390  50.9458430  42.2222670
  50.2569590  46.8927360  37.4151410  50.1465920  45.9501690  37.5400830
  50.2537840  47.2543000  38.3014170  48.3609610  45.0740980  43.6543850
  48.7778400  44.8601090  42.8197310  49.0849430  45.3313770  44.2252470
  52.3071710  43.4728200  43.7460090  51.4790340  43.5421290  43.2710220
  52.9022190  44.0582510  43.2775920  49.8287160  44.0812980  37.2749150
  49.2099580  43.7432530  36.6275450  49.8111610  43.4372740  37.9828340
  49.2713720  40.2597520  44.6914960  48.8584900  41.0851230  44.9454950
  48.5389670  39.6742560  44.4991320  49.9613820  50.3056850  45.3795940
  49.4844380  51.1129040  45.1868550  49.2775610  49.6535180  45.5322150
  40.9646640  46.4706670  48.3680640  40.0675170  46.6946640  48.6154040
  40.9899510  46.5941610  47.4192040  46.1147240  48.2595860  38.2503140
  46.5543150  49.0020190  37.8358530  46.0534130  48.5022430  39.1742100
  41.5898210  49.2841690  49.1523160  41.5613640  49.6884640  48.2851590
  41.4263180  48.3552050  48.9894760  53.5413030  50.0668790  50.4487330
  54.0172750  50.5451680  51.1276410  54.1620190  49.9986280  49.7232830
  52.9446280  47.2581640  47.6087340  53.0709340  47.0193520  46.6904520
  52.9867660  46.4266180  48.0809420  46.8063020  50.9609640  46.1782150
  47.3207690  50.8717650  46.9804580  45.9632100  51.3069340  46.4710060
  48.7817420  51.2464980  35.6066150  48.6218560  50.9567920  36.5047980
  48.6164130  50.4705110  35.0711380  41.2605800  51.0263510  37.3837770
  41.0848280  50.1099050  37.1705570  40.4061540  51.3850800  37.6235570
  48.4843550  48.7552540  34.1664150  47.7908710  48.7529830  33.5066430
  49.2266410  48.3311860  33.7358320  48.0493480  50.3815250  38.2412640
  48.5050430  49.6004630  38.5551260  48.3886000  51.0922070  38.7853820
  52.7970290  39.3114100  48.5737080  52.1814560  39.8193770  48.0452540
  52.4766710  38.4112430  48.5163020  44.8584610  38.1505990  46.0399270
  44.3963980  38.3589010  46.8519210  44.4562720  37.3365340  45.7369940
  49.8589120  39.3714940  47.1695930  49.0082710  39.0720690  47.4905000
  49.6990910  39.6156950  46.2579750  46.9538830  40.8716690  49.2694720
  47.2792240  40.0380440  48.9296950  47.7419160  41.3945210  49.4173050
  42.8028230  41.3056620  48.8305470  42.7071830  40.3651350  48.6805870
  43.6460210  41.5271690  48.4353540  44.5083820  37.8005260  50.0535990
  43.8182140  37.6077460  50.6882080  45.2516120  38.0839900  50.5860290
  46.7846790  41.6403700  42.8889910  46.0527910  42.1490510  43.2380010
  46.3871130  40.8233680  42.5878690  50.6743450  34.5069560  48.1399230
  50.9989220  33.7759220  48.6657210  50.7099960  34.1883200  47.2380220
  37.3735010  45.5283140  47.5599190  36.9889800  44.8876810  48.1582150
  37.6847200  46.2319260  48.1293920  50.6001290  44.6194670  41.7485260
  51.3200410  45.1149960  41.3581370  50.3983110  43.9412560  41.1039130
  45.9820090  44.6903730  47.6354260  45.9157400  43.7699400  47.3811850
  45.3525230  44.7879170  48.3498900  40.5708370  42.7155300  49.3902930
  40.2708510  42.8612480  48.4930750  41.3419610  42.1560590  49.2976320
  45.9136820  47.5124300  47.3858060  45.9281360  46.5805260  47.1676970
  45.2061920  47.5984060  48.0247830  52.1248030  44.1531640  46.7326640
  51.3996220  44.7460420  46.5356030  52.6523490  44.1455180  45.9340010
  52.0761140  48.5506380  36.3838800  51.4337300  47.8962000  36.6582520
  51.6891800  48.9561470  35.6079470  47.6547620  45.8791810  40.2310490
  48.0071440  45.2819940  39.5711860  46.7709950  45.5536040  40.4018740
  45.3470720  49.1541870  44.4798560  45.9912940  49.3601250  45.1571980
  45.7100160  48.3930270  44.0269410  46.6202800  47.1574220  43.1976010
  47.2625030  46.4567380  43.3108180  47.1452150  47.9372660  43.0172900
  48.3940420  47.9569120  46.4012070  48.7296660  48.5435810  47.0789990
  47.4740760  47.8261830  46.6309860  36.2474550  51.4689700  33.6959610
  36.6072190  52.0679040  33.0416880  36.1066890  52.0149590  34.4694640
  36.2316410  49.7344560  48.1702010  36.3407530  48.7939300  48.0297400
  35.5796970  49.9999310  47.5215740  44.2229000  48.0060450  49.5700130
  43.9025870  47.2869690  50.1145820  43.5487360  48.6815520  49.6436190
  47.4382600  38.2386610  44.9336930  47.8063420  37.4181820  45.2616500
  46.5780800  38.2988500  45.3492580  45.2502770  48.9149140  33.1758470
  45.3514750  48.7113130  32.2460450  44.3504510  48.6607420  33.3806250
  44.3984590  40.8926200  45.1574900  44.8969840  41.3672020  45.8226750
  44.5407540  39.9689720  45.3644930  43.8920880  51.4335460  37.8706140
  44.1462380  51.3956850  36.9485510  42.9433360  51.3068790  37.8634390
  51.6051450  37.1094160  46.0003290  51.1025050  37.8499560  46.3397100
  52.4208110  37.4978160  45.6840080  49.8973460  42.3527340  39.4464650
  48.9563600  42.3677570  39.6212340  50.2117530  41.5663300  39.8924950
  51.8999040  49.5236190  41.1218910  52.0246460  50.3467360  41.5942720
  52.7664600  49.3126920  40.7743060  38.3774850  50.8013470  49.9821620
  39.1787580  51.1225520  50.3957020  37.8626670  50.4409050  50.7041530
  42.4818880  50.7897710  32.6161610  43.2747490  51.0786540  32.1643400
  41.9623230  50.3589880  31.9374090  47.2139480  46.9093340  49.9297030
  46.6077640  46.9324940  49.1892780  46.9093590  46.1776380  50.4664280
  48.6439850  50.6373630  48.5406440  49.5961600  50.5531650  48.4906680
  48.4968070  51.3015340  49.2140230  51.5349050  50.0167840  34.0398350
  51.2490560  49.6032980  33.2252530  51.3368600  50.9455550  33.9198870
  36.0972660  43.2886930  48.9257670  36.6011680  42.7094210  49.4973900
  35.3580080  43.5727160  49.4634040  43.1510600  44.6957920  48.4593190
  42.3856270  45.2642920  48.3747860  43.3326560  44.4034130  47.5661420
  50.2933950  46.4263250  49.0168210  51.0343420  46.7639010  48.5135670
  49.5306630  46.5955310  48.4637980  38.1295740  41.4316520  49.8207740
  38.1701080  41.1330390  50.7292970  38.9841240  41.8324130  49.6615260
  48.9679610  44.4778080  47.5523420  49.3820630  44.6323160  48.4013840
  48.0330610  44.6033300  47.7149200  49.4401780  41.8174240  49.5562570
  50.0222550  41.0626560  49.4683050  49.6163550  42.3481680  48.7794050
  46.0658740  42.1614740  46.9057190  46.1854950  41.5655880  47.6452030
  46.9252740  42.1984430  46.4858490  48.4046640  42.7151930  45.4819700
  47.8781860  43.2394550  44.8784840  48.7477980  43.3479320  46.1129430
  41.5802260  50.7351570  46.6377080  41.0423350  51.4597630  46.3185780
  41.8336220  50.2581910  45.8474420  42.8327510  38.7036090  48.1633010
  43.4227200  38.3951940  48.8510830  42.0147750  38.2315840  48.3192910
  47.6520940  38.3201900  48.3966030  46.9636460  37.6583440  48.3316020
  48.3726960  37.8740170  48.8414490  44.4364470  51.9702780  46.8963730
  44.3623170  52.8737920  47.2036100  43.5343310  51.6514680  46.8685800
  44.9849800  51.1361290  34.5190090  45.8800590  51.4746260  34.5408850
  45.0167430  50.4140700  33.8914370  51.9644150  49.6664960  47.2256290
  51.3646140  49.7257520  46.4820210  52.0938050  48.7269940  47.3553140
  53.2045600  47.4082780  32.5626000  52.3738560  47.4759430  33.0333230
  53.3817430  48.2986900  32.2592860  52.6602060  44.1530260  35.0660200
  53.4220970  44.7226910  35.1719890  52.6756430  43.5857460  35.8368510
  53.6662030  45.0080360  39.9102130  54.0370860  44.2247680  39.5038100
  54.3063960  45.6969460  39.7319430  50.6495790  46.3916940  45.3232450
  49.8355630  46.8214100  45.5858240  51.0569990  47.0035350  44.7101500
  52.6086570  42.3833620  37.2162150  52.2330170  41.6161550  36.7843440
  51.8789690  42.7656320  37.7037080  51.9986190  41.5305140  46.8501670
  51.7672280  41.3017890  45.9499620  52.2590740  42.4504690  46.8046560
  50.4374260  36.7561570  49.6281370  51.3144440  36.7644970  50.0115370
  50.4495100  36.0192410  49.0173720  51.8837530  40.6091110  40.5169390
  52.4075010  40.1153760  39.8859560  52.4696950  40.7441470  41.2616960
  52.0627250  40.6930980  44.0388940  51.1129960  40.6594520  44.1533930
  52.2440260  41.6031090  43.8038710  50.7071840  51.1435540  38.8500720
  51.3030910  50.8220110  38.1735140  50.9649990  50.6707360  39.6413990
  38.6134410  47.5753450  48.9991350  38.5704040  47.2046360  49.8805810
  38.7445420  48.5131020  49.1393170  42.3140440  49.1313040  44.6001070
  42.0731800  49.3987600  43.7131590  43.2543080  49.3018770  44.6551930
  44.5194860  35.5945730  48.3557580  44.4583750  36.1867560  49.1052990
  45.4595240  35.4871690  48.2107840  47.1569420  35.2515790  47.9949870
  47.7709830  35.5695080  47.3330950  47.7018980  34.7664380  48.6145730
  53.5744600  51.1507420  45.4011710  53.0802880  51.5476290  44.6838840
  52.9657890  50.5256630  45.7948990  38.4522440  50.5215700  46.1189130
  37.8582760  50.3900400  46.8579170  38.4446280  49.6853840  45.6531230
  48.8049440  36.0218800  45.7060880  48.4762800  35.2070560  45.3262610
  49.7531740  35.9788610  45.5826570  51.2584050  51.7930840  42.6798450
  50.7987020  52.5446650  42.3056470  50.6296510  51.0737310  42.6213250
  44.4275270  50.9927570  42.6815560  44.7153080  50.7381870  41.8048570
  44.9398490  50.4404930  43.2721130  44.4947630  51.9143670  50.0483760
  45.4214940  51.6787940  50.0919720  44.4798060  52.7415670  49.5669790
  52.7292690  51.4569240  37.0458010  52.9044880  50.7706980  36.4018930
  52.0314260  51.9816290  36.6534680  41.6811240  34.5788420  49.8125640
  41.3995510  35.0822020  49.0486460  42.0630940  33.7810170  49.4467770
  40.5720340  51.8464080  34.5993320  41.3039160  51.5623360  34.0517210
  40.8314010  51.6077360  35.4892700  48.2826700  33.9942000  50.3906110
  48.1692150  34.3136610  51.2857630  49.0996440  34.3954510  50.0943390
  51.0625190  51.1413530  49.8724800  51.8550510  50.6462760  49.6650760
  51.3558340  51.8203670  50.4800410  47.1884850  42.0134470  20.7540850
  47.1078900  41.0989080  20.4832560  46.7749270  42.5101540  20.0480560
  45.3202890  43.7913490  22.6350120  44.5444990  43.3113930  22.9248690
  45.9715820  43.1119140  22.4606280  49.3410320  48.1973680  21.4149250
  48.8791850  47.4260920  21.7436420  50.1535870  48.2239750  21.9201700
  39.3169980  48.1373390  23.7083900  39.6198020  47.2471130  23.5294120
  40.0613570  48.6943610  23.4806150  45.5673630  50.4831690  21.0353240
  44.9485070  50.9389190  20.4647680  46.4225410  50.6383150  20.6342940
  44.7611880  46.4670680  22.6420280  44.6920160  45.5260620  22.4809410
  45.5231740  46.5572090  23.2142850  45.7917050  39.2741060  22.8689210
  46.1681870  38.4012940  22.7562880  45.6936560  39.6099760  21.9779650
  49.5741170  36.7691500  19.8017550  50.3950790  36.2788070  19.8443030
  49.6075250  37.3589160  20.5549390  53.8640720  38.7858250  26.3661180
  53.1592890  39.1739960  25.8476290  54.1298640  39.4808540  26.9682110
  46.4336980  45.3670930  18.4285150  45.8154250  45.8320380  17.8647870
  46.9460230  46.0598410  18.8454660  41.2968740  44.8946800  25.1068750
  40.9638120  45.5215720  25.7489820  41.4735420  45.4208680  24.3270420
  49.8102650  38.7091880  22.5745090  49.1058220  38.9976770  23.1548200
  50.1714810  39.5191990  22.2144650  40.5087840  46.8627600  26.9217930
  41.1261840  47.5378680  26.6402380  39.6480960  47.2715580  26.8305430
  35.8020180  46.0527460  15.8024780  35.4248160  46.5414560  15.0709680
  36.0593250  46.7252740  16.4331310  51.4265430  48.3267010  24.8372570
  50.7428950  48.9966120  24.8289240  51.9659720  48.5247660  24.0717430
  52.8789570  38.1546670  22.9654300  51.9314480  38.1885650  23.0969730
  53.2039560  38.9685620  23.3503660  48.9624170  50.1711140  23.5517750
  48.9751330  49.7673430  22.6840010  48.4099390  50.9458430  23.4479180
  50.2569590  46.8927360  18.6407920  50.1465920  45.9501690  18.7657340
  50.2537840  47.2543000  19.5270680  48.3609610  45.0740980  24.8800360
  48.7778400  44.8601090  24.0453820  49.0849430  45.3313770  25.4508980
  45.7989870  42.5192680  17.9970410  44.8719150  42.4530060  18.2258880
  45.9514690  43.4572810  17.8825650  45.7858950  38.7909680  14.9937570
  44.8462620  38.9523640  15.0790030  46.1042210  39.5095360  14.4473560
  52.3071710  43.4728200  24.9716600  51.4790340  43.5421290  24.4966730
  52.9022190  44.0582510  24.5032430  49.8287160  44.0812980  18.5005660
  49.2099580  43.7432530  17.8531960  49.8111610  43.4372740  19.2084850
  49.2713720  40.2597520  25.9171470  48.8584900  41.0851230  26.1711460
  48.5389670  39.6742560  25.7247830  41.8728210  46.7324980  22.9429350
  41.5756500  46.1270450  22.2637130  42.8228030  46.7702290  22.8318710
  49.9613820  50.3056850  26.6052450  49.4844380  51.1129040  26.4125060
  49.2775610  49.6535180  26.7578660  48.0051860  43.3199790  15.5078410
  48.4445140  42.4822220  15.3616230  48.7180280  43.9529190  15.5942550
  46.1147240  48.2595860  19.4759650  46.5543150  49.0020190  19.0615040
  46.0534130  48.5022430  20.3998610  41.5898210  49.2841690  30.3779670
  41.5613640  49.6884640  29.5108100  41.4263180  48.3552050  30.2151270
  51.5869000  34.5742600  13.8219450  51.2741660  34.6669430  14.7218520
  52.3481470  35.1523630  13.7716880  53.5413030  50.0668790  31.6743840
  54.0172750  50.5451680  32.3532920  54.1620190  49.9986280  30.9489340
  36.9884140  46.8117730  20.4971610  36.5812220  46.9532320  19.6425210
  37.8797150  46.5277890  20.2942820  52.9446280  47.2581640  28.8343850
  53.0709340  47.0193520  27.9161030  52.9867660  46.4266180  29.3065930
  46.8063020  50.9609640  27.4038660  47.3207690  50.8717650  28.2061090
  45.9632100  51.3069340  27.6966570  48.7817420  51.2464980  16.8322660
  48.6218560  50.9567920  17.7304490  48.6164130  50.4705110  16.2967890
  41.2605800  51.0263510  18.6094280  41.0848280  50.1099050  18.3962080
  40.4061540  51.3850800  18.8492080  48.4843550  48.7552540  15.3920660
  47.7908710  48.7529830  14.7322940  49.2266410  48.3311860  14.9614830
  48.0493480  50.3815250  19.4669150  48.5050430  49.6004630  19.7807770
  48.3886000  51.0922070  20.0110330  52.7970290  39.3114100  29.7993590
  52.1814560  39.8193770  29.2709050  52.4766710  38.4112430  29.7419530
  49.8589120  39.3714940  28.3952440  49.0082710  39.0720690  28.7161510
  49.6990910  39.6156950  27.4836260  47.5926780  40.4134410  17.9892360
  46.9935670  41.1370210  17.8055980  48.1406390  40.3511190  17.2068810
  46.1991650  39.0497950  20.0195640  46.5921220  39.3670150  19.2064330
  46.5608500  38.1709830  20.1340160  35.4226050  39.5818870  13.4528560
  35.3400720  40.5249630  13.5943550  35.0709110  39.4393780  12.5740910
  46.7846790  41.6403700  24.1146420  46.0527910  42.1490510  24.4636520
  46.3871130  40.8233680  23.8135200  43.2844330  39.3169980  15.5105670
  43.4057150  39.2756460  16.4591490  42.8992840  40.1794130  15.3552400
  47.2472700  37.0937380  23.5269360  47.2645440  37.5446030  24.3711210
  46.9988280  36.1943020  23.7402800  42.2965830  41.6271120  14.9088970
  41.7282730  41.1789370  14.2824880  43.0054830  41.9863900  14.3754120
  39.8413310  45.6229310  17.1815380  39.0675570  45.0826930  17.0214100
  40.5707940  45.1035920  16.8433140  50.6001290  44.6194670  22.9741770
  51.3200410  45.1149960  22.5837880  50.3983110  43.9412560  22.3295640
  46.0611230  36.0132630  17.1171160  45.2475840  35.5145800  17.0416470
  45.8673180  36.8530880  16.7007510  48.7759620  40.3852280  15.4133320
  49.6639240  40.6969510  15.2384660  48.7464710  39.5124530  15.0213900
  39.8850710  45.2909690  20.8194190  40.4029380  44.4877950  20.7651080
  39.4334730  45.2288830  21.6611020  44.7720210  46.5575970  16.0921490
  45.1135910  47.3018200  15.5964810  43.9432920  46.8707090  16.4546320
  45.9136820  47.5124300  28.6114570  45.9281360  46.5805260  28.3933480
  45.2061920  47.5984060  29.2504340  51.0473890  41.6964120  14.8813180
  50.9637610  42.1278340  14.0309620  51.7668080  42.1562470  15.3140000
  52.1248030  44.1531640  27.9583150  51.3996220  44.7460420  27.7612540
  52.6523490  44.1455180  27.1596520  52.0761140  48.5506380  17.6095310
  51.4337300  47.8962000  17.8839030  51.6891800  48.9561470  16.8335980
  47.6547620  45.8791810  21.4567000  48.0071440  45.2819940  20.7968370
  46.7709950  45.5536040  21.6275250  43.7410900  46.6389500  18.8637410
  44.4282030  47.1858710  19.2445000  42.9543320  47.1830230  18.8987020
  35.8803300  42.2562320  14.3554490  36.7498150  42.5387120  14.6390410
  35.3893620  43.0698190  14.2403300  43.0438110  43.6435530  18.4762770
  43.5000890  44.4540780  18.7022960  42.6926320  43.3258670  19.3081260
  45.3470720  49.1541870  25.7055070  45.9912940  49.3601250  26.3828490
  45.7100160  48.3930270  25.2525920  46.6202800  47.1574220  24.4232520
  47.2625030  46.4567380  24.5364690  47.1452150  47.9372660  24.2429410
  50.4658520  47.4422840  14.1471660  50.2396100  46.7253280  14.7396300
  50.0754720  47.1935280  13.3093410  48.3940420  47.9569120  27.6268580
  48.7296660  48.5435810  28.3046500  47.4740760  47.8261830  27.8566370
  36.2474550  51.4689700  14.9216120  36.6072190  52.0679040  14.2673390
  36.1066890  52.0149590  15.6951150  50.0474770  45.3594780  15.8085820
  49.7596470  45.8207470  16.5963700  50.8426940  44.8992550  16.0770040
  36.2316410  49.7344560  29.3958520  36.3407530  48.7939300  29.2553910
  35.5796970  49.9999310  28.7472250  44.2229000  48.0060450  30.7956640
  43.9025870  47.2869690  31.3402330  43.5487360  48.6815520  30.8692700
  42.2643170  48.8520900  15.7389790  42.2553270  49.5850590  15.1234300
  41.3441530  48.6052480  15.8316750  37.8649810  44.0735790  16.4836550
  37.2577760  44.8134690  16.4931850  38.3399160  44.1635150  15.6574750
  47.4382600  38.2386610  26.1593440  47.8063420  37.4181820  26.4873010
  46.5780800  38.2988500  26.5749090  50.8044630  37.1943550  16.9681000
  50.1757790  37.2989220  16.2539230  50.3096550  37.4140330  17.7574880
  45.2502770  48.9149140  14.4014980  45.3514750  48.7113130  13.4716960
  44.3504510  48.6607420  14.6062760  46.8044090  36.1980160  19.8234670
  46.6811870  36.2166290  18.8744180  47.7528650  36.2459100  19.9433070
  43.8920880  51.4335460  19.0962650  44.1462380  51.3956850  18.1742020
  42.9433360  51.3068790  19.0890900  40.9763680  37.7814580  15.7589590
  41.8254210  38.2184730  15.6929780  40.6094950  38.0934840  16.5861650
  49.8973460  42.3527340  20.6721160  48.9563600  42.3677570  20.8468850
  50.2117530  41.5663300  21.1181460  39.8755100  44.0346940  14.2325120
  40.6418370  43.9228300  14.7950550  39.9529790  43.3384910  13.5801890
  38.5701860  41.4672010  14.9158010  38.6505450  40.5199520  15.0275410
  39.4621610  41.7978890  15.0218670  51.8999040  49.5236190  22.3475420
  52.0246460  50.3467360  22.8199230  52.7664600  49.3126920  21.9999570
  39.3716570  51.6167400  22.0192550  40.1079050  51.0682860  22.2901120
  39.7557490  52.4823410  21.8798540  36.2562050  47.6840970  17.8934060
  35.3301830  47.9262110  17.8839470  36.7218480  48.5115230  17.7718810
  38.3774850  50.8013470  31.2078130  39.1787580  51.1225520  31.6213530
  37.8626670  50.4409050  31.9298040  42.4818880  50.7897710  13.8418120
  43.2747490  51.0786540  13.3899910  41.9623230  50.3589880  13.1630600
  48.6439850  50.6373630  29.7662950  49.5961600  50.5531650  29.7163190
  48.4968070  51.3015340  30.4396740  51.5349050  50.0167840  15.2654860
  51.2490560  49.6032980  14.4509040  51.3368600  50.9455550  15.1455380
  42.9996280  46.0101120  13.7060470  42.8946920  45.3953470  14.4321850
  42.8320500  45.4867010  12.9223480  46.2399010  45.0721150  14.3102460
  45.6909110  45.5190450  14.9545200  46.8618270  44.5670400  14.8340130
  41.9074130  44.0312070  16.2067760  42.3290550  43.8651940  17.0499150
  42.0324970  43.2212300  15.7122900  44.4201770  43.0549680  13.4544860
  44.9407430  42.3398700  13.0886010  45.0670170  43.6935550  13.7545370
  40.8033030  40.1045300  13.1525920  40.6022090  39.2412660  13.5139260
  40.6325080  40.0178660  12.2147520  41.5802260  50.7351570  27.8633590
  41.0423350  51.4597630  27.5442290  41.8336220  50.2581910  27.0730930
  48.2821340  34.9153530  15.6812800  48.5623630  34.0721430  16.0372220
  47.5087070  35.1476640  16.1951550  39.6015830  37.2045920  13.1403800
  39.9041730  37.2113350  12.2322950  40.3410420  36.8543780  13.6371460
  44.4364470  51.9702780  28.1220240  44.3623170  52.8737920  28.4292610
  43.5343310  51.6514680  28.0942310  42.8200760  36.1480540  14.1260000
  42.4722760  35.4704530  13.5462450  43.0213530  35.6870050  14.9403390
  44.9849800  51.1361290  15.7446600  45.8800590  51.4746260  15.7665360
  45.0167430  50.4140700  15.1170880  38.6245960  46.5088340  13.9733600
  39.0620830  47.0518010  14.6291180  39.1093690  45.6835290  13.9829940
  35.8391760  49.2977370  21.4253860  36.1694770  48.4298430  21.1932500
  36.2682760  49.5035890  22.2558820  40.4353680  47.6286380  19.0855830
  40.1349220  47.5051350  19.9859740  40.3291170  46.7694970  18.6771560
  36.3281970  50.1647960  24.1635490  35.8912960  50.3448760  24.9959640
  36.8959650  50.9222580  24.0217210  51.9644150  49.6664960  28.4512800
  51.3646140  49.7257520  27.7076720  52.0938050  48.7269940  28.5809650
  53.2045600  47.4082780  13.7882510  52.3738560  47.4759430  14.2589740
  53.3817430  48.2986900  13.4849370  52.6602060  44.1530260  16.2916710
  53.4220970  44.7226910  16.3976400  52.6756430  43.5857460  17.0625020
  53.6662030  45.0080360  21.1358640  54.0370860  44.2247680  20.7294610
  54.3063960  45.6969460  20.9575940  50.6495790  46.3916940  26.5488960
  49.8355630  46.8214100  26.8114750  51.0569990  47.0035350  25.9358010
  52.7121230  44.4464630  13.4489230  52.9870070  45.3543510  13.3208450
  52.5231970  44.3827160  14.3851220  49.1096840  37.4709480  14.7442860
  49.5281720  37.2840460  13.9039520  48.8032900  36.6188530  15.0545790
  52.6086570  42.3833620  18.4418660  52.2330170  41.6161550  18.0099950
  51.8789690  42.7656320  18.9293590  51.9986190  41.5305140  28.0758180
  51.7672280  41.3017890  27.1756130  52.2590740  42.4504690  28.0303070
  51.8837530  40.6091110  21.7425900  52.4075010  40.1153760  21.1116070
  52.4696950  40.7441470  22.4873470  52.0627250  40.6930980  25.2645450
  51.1129960  40.6594520  25.3790440  52.2440260  41.6031090  25.0295220
  37.9171690  38.9432660  14.3744080  38.6263390  38.5215880  13.8891360
  37.2011630  39.0107890  13.7427430  51.3737500  39.8664460  17.6818310
  51.8696620  39.6335330  18.4667190  51.1753570  39.0276300  17.2655950
  52.8024660  38.5025410  20.2155990  52.6923940  38.3481450  21.1538260
  53.5632250  37.9746350  19.9731400  53.6914930  36.3333330  13.4562130
  54.6164240  36.2014510  13.2480420  53.6690720  36.4126150  14.4098580
  53.7653420  37.1043990  16.0818840  52.9704920  37.0389110  16.6111750
  53.9696700  38.0394630  16.0704190  50.7071840  51.1435540  20.0757230
  51.3030910  50.8220110  19.3991650  50.9649990  50.6707360  20.8670500
  42.3140440  49.1313040  25.8257580  42.0731800  49.3987600  24.9388100
  43.2543080  49.3018770  25.8808440  53.5744600  51.1507420  26.6268220
  53.0802880  51.5476290  25.9095350  52.9657890  50.5256630  27.0205500
  38.4522440  50.5215700  27.3445640  37.8582760  50.3900400  28.0835680
  38.4446280  49.6853840  26.8787740  51.2584050  51.7930840  23.9054960
  50.7987020  52.5446650  23.5312980  50.6296510  51.0737310  23.8469760
  41.6879770  50.1019080  23.0803090  42.2044790  49.4906440  22.5551350
  42.3377150  50.6047860  23.5714100  44.4275270  50.9927570  23.9072070
  44.7153080  50.7381870  23.0305080  44.9398490  50.4404930  24.4977640
  50.1973350  35.4340870  22.5317670  50.6381440  35.3785970  21.6839270
  49.9280940  36.3498880  22.6027850  52.0611920  35.0656110  20.5426490
  52.0000320  34.1217330  20.3957510  52.8403950  35.1736200  21.0879950
  36.3664670  51.2048470  19.5050440  36.1986710  50.5719150  20.2032330
  35.4999180  51.4107870  19.1544630  51.1766080  34.2168530  16.5107960
  51.3716710  35.1151980  16.7775390  50.3895950  33.9855610  17.0040910
  37.9727370  49.8981700  16.9500580  37.4474990  50.2789730  16.2462540
  37.8971950  50.5232470  17.6710290  44.4947630  51.9143670  31.2740270
  45.4214940  51.6787940  31.3176230  44.4798060  52.7415670  30.7926300
  52.7292690  51.4569240  18.2714520  52.9044880  50.7706980  17.6275440
  52.0314260  51.9816290  17.8791190  40.5720340  51.8464080  15.8249830
  41.3039160  51.5623360  15.2773720  40.8314010  51.6077360  16.7149210
  39.7335130  47.9628810  15.8296160  39.1044010  48.4313910  16.3781990
  39.8482960  47.1178030  16.2642350  51.0625190  51.1413530  31.0981310
  51.8550510  50.6462760  30.8907270  51.3558340  51.8203670  31.7056920
  45.3202890  43.7913490   3.8606630  44.5444990  43.3113930   4.1505200
  45.9715820  43.1119140   3.6862790  39.3368720  44.1033300   4.7382390
  38.5053600  43.8482010   5.1378900  39.9449700  44.1744070   5.4740310
  49.3410320  48.1973680   2.6405760  48.8791850  47.4260920   2.9692930
  50.1535870  48.2239750   3.1458210  39.3169980  48.1373390   4.9340410
  39.6198020  47.2471130   4.7550630  40.0613570  48.6943610   4.7062660
  35.7093680  41.6640840   4.4064480  36.2809790  40.8963040   4.4068120
  35.7095220  41.9629600   3.4971090  45.5673630  50.4831690   2.2609750
  44.9485070  50.9389190   1.6904190  46.4225410  50.6383150   1.8599450
  44.7611880  46.4670680   3.8676790  44.6920160  45.5260620   3.7065920
  45.5231740  46.5572090   4.4399360  36.9518550  37.0725200   6.1933410
  36.7721390  36.1750950   6.4736170  36.5498630  37.6197070   6.8680360
  45.7917050  39.2741060   4.0945720  46.1681870  38.4012940   3.9819390
  45.6936560  39.6099760   3.2036160  37.5705220  39.5685700   4.8015750
  38.2515330  39.8324070   5.4203150  37.2553270  38.7286570   5.1353760
  41.7629790  40.6153060   3.8888340  42.2708010  41.1134030   4.5293360
  42.2943030  39.8388260   3.7127700  53.8640720  38.7858250   7.5917690
  53.1592890  39.1739960   7.0732800  54.1298640  39.4808540   8.1938620
  40.0465890  35.2551620   8.1551760  40.0484330  35.7724010   7.3497660
  39.2170200  34.7781800   8.1321690  41.2968740  44.8946800   6.3325260
  40.9638120  45.5215720   6.9746330  41.4735420  45.4208680   5.5526930
  49.8102650  38.7091880   3.8001600  49.1058220  38.9976770   4.3804710
  50.1714810  39.5191990   3.4401160  39.7281220  36.9661580   6.1622210
  40.0698030  37.8103630   5.8676080  38.7897030  37.1145320   6.2787550
  40.5087840  46.8627600   8.1474440  41.1261840  47.5378680   7.8658890
  39.6480960  47.2715580   8.0561940  51.4265430  48.3267010   6.0629080
  50.7428950  48.9966120   6.0545750  51.9659720  48.5247660   5.2973940
  52.8789570  38.1546670   4.1910810  51.9314480  38.1885650   4.3226240
  53.2039560  38.9685620   4.5760170  43.4109110  34.4543850   2.4866800
  43.7184090  33.8990740   1.7702300  42.4809810  34.5888310   2.3039790
  48.9624170  50.1711140   4.7774260  48.9751330  49.7673430   3.9096520
  48.4099390  50.9458430   4.6735690  48.3609610  45.0740980   6.1056870
  48.7778400  44.8601090   5.2710330  49.0849430  45.3313770   6.6765490
  52.3071710  43.4728200   6.1973110  51.4790340  43.5421290   5.7223240
  52.9022190  44.0582510   5.7288940  49.2713720  40.2597520   7.1427980
  48.8584900  41.0851230   7.3967970  48.5389670  39.6742560   6.9504340
  41.8728210  46.7324980   4.1685860  41.5756500  46.1270450   3.4893640
  42.8228030  46.7702290   4.0575220  40.1175130  39.8200630   5.7845690
  40.6689720  39.9295970   5.0098940  40.6318640  40.1938230   6.5000920
  49.9613820  50.3056850   7.8308960  49.4844380  51.1129040   7.6381570
  49.2775610  49.6535180   7.9835170  40.9646640  46.4706670  10.8193660
  40.0675170  46.6946640  11.0667060  40.9899510  46.5941610   9.8705060
  39.7917860  43.3419990   9.3951030  39.6525630  44.2142790   9.7638430
  38.9099220  42.9992800   9.2498970  41.5898210  49.2841690  11.6036180
  41.5613640  49.6884640  10.7364610  41.4263180  48.3552050  11.4407780
  53.5413030  50.0668790  12.9000350  54.0172750  50.5451680  13.5789430
  54.1620190  49.9986280  12.1745850  35.7436510  45.1117540   5.3121940
  35.8216930  45.2466310   4.3677660  36.3578190  44.4033430   5.5050060
  52.9446280  47.2581640  10.0600360  53.0709340  47.0193520   9.1417540
  52.9867660  46.4266180  10.5322440  46.8063020  50.9609640   8.6295170
  47.3207690  50.8717650   9.4317600  45.9632100  51.3069340   8.9223080
  52.7970290  39.3114100  11.0250100  52.1814560  39.8193770  10.4965560
  52.4766710  38.4112430  10.9676040  35.7996030  46.1531710   7.8516400
  35.9627070  45.6837070   7.0335770  36.2648480  45.6455270   8.5165240
  40.5714800  35.2837470   2.8876970  40.1282950  36.0647010   2.5561490
  41.1299790  35.6067360   3.5947910  44.8584610  38.1505990   8.4912290
  44.3963980  38.3589010   9.3032230  44.4562720  37.3365340   8.1882960
  49.8589120  39.3714940   9.6208950  49.0082710  39.0720690   9.9418020
  49.6990910  39.6156950   8.7092770  46.9538830  40.8716690  11.7207740
  47.2792240  40.0380440  11.3809970  47.7419160  41.3945210  11.8686070
  42.6090700  35.8284800   4.7466570  42.9063030  36.7347630   4.6658590
  43.1576260  35.3403580   4.1326140  42.8028230  41.3056620  11.2818490
  42.7071830  40.3651350  11.1318890  43.6460210  41.5271690  10.8866560
  37.9338770  37.7170290   9.4352270  37.5402160  38.5645500   9.6425050
  37.2457170  37.0796660   9.6260910  44.5083820  37.8005260  12.5049010
  43.8182140  37.6077460  13.1395100  45.2516120  38.0839900  13.0373310
  35.2355820  35.6398750   3.4682350  34.9468870  36.2101610   4.1807330
  35.9801580  35.1603200   3.8313580  46.7846790  41.6403700   5.3402930
  46.0527910  42.1490510   5.6893030  46.3871130  40.8233680   5.0391710
  43.2224180  38.3157900   3.7455420  43.2260240  37.8747850   2.8959960
  44.1175300  38.6375230   3.8527240  39.0726560  38.1984390   2.7049630
  38.7326610  38.6759620   3.4616680  38.3103880  37.7449510   2.3450730
  47.2472700  37.0937380   4.7525870  47.2645440  37.5446030   5.5967720
  46.9988280  36.1943020   4.9659310  50.6743450  34.5069560  10.5912250
  50.9989220  33.7759220  11.1170230  50.7099960  34.1883200   9.6893240
  37.3735010  45.5283140  10.0112210  36.9889800  44.8876810  10.6095170
  37.6847200  46.2319260  10.5806940  43.5232150  42.3759680   5.4920830
  43.8902280  41.9018250   6.2382170  43.3337210  43.2501250   5.8329170
  41.3131520  41.4168320   7.8105040  41.0088590  42.2960300   8.0355400
  42.2677980  41.4768110   7.8462480  50.6001290  44.6194670   4.1998280
  51.3200410  45.1149960   3.8094390  50.3983110  43.9412560   3.5552150
  45.9820090  44.6903730  10.0867280  45.9157400  43.7699400   9.8324870
  45.3525230  44.7879170  10.8011920  39.8850710  45.2909690   2.0450700
  40.4029380  44.4877950   1.9907590  39.4334730  45.2288830   2.8867530
  37.3695250  42.2571060   8.9576400  37.0110190  42.9224910   9.5449740
  37.0749810  41.4254610   9.3289020  40.5708370  42.7155300  11.8415950
  40.2708510  42.8612480  10.9443770  41.3419610  42.1560590  11.7489340
  45.9136820  47.5124300   9.8371080  45.9281360  46.5805260   9.6189990
  45.2061920  47.5984060  10.4760850  52.1248030  44.1531640   9.1839660
  51.3996220  44.7460420   8.9869050  52.6523490  44.1455180   8.3853030
  47.6547620  45.8791810   2.6823510  48.0071440  45.2819940   2.0224880
  46.7709950  45.5536040   2.8531760  45.3470720  49.1541870   6.9311580
  45.9912940  49.3601250   7.6085000  45.7100160  48.3930270   6.4782430
  46.6202800  47.1574220   5.6489030  47.2625030  46.4567380   5.7621200
  47.1452150  47.9372660   5.4685920  48.3940420  47.9569120   8.8525090
  48.7296660  48.5435810   9.5303010  47.4740760  47.8261830   9.0822880
  35.9443820  35.7464300   9.6348500  35.2302340  35.9461220  10.2401110
  36.3638860  34.9703870  10.0063300  36.2316410  49.7344560  10.6215030
  36.3407530  48.7939300  10.4810420  35.5796970  49.9999310   9.9728760
  44.2229000  48.0060450  12.0213150  43.9025870  47.2869690  12.5658840
  43.5487360  48.6815520  12.0949210  47.4382600  38.2386610   7.3849950
  47.8063420  37.4181820   7.7129520  46.5780800  38.2988500   7.8005600
  44.3984590  40.8926200   7.6087920  44.8969840  41.3672020   8.2739770
  44.5407540  39.9689720   7.8157950  51.6051450  37.1094160   8.4516310
  51.1025050  37.8499560   8.7910120  52.4208110  37.4978160   8.1353100
  49.8973460  42.3527340   1.8977670  48.9563600  42.3677570   2.0725360
  50.2117530  41.5663300   2.3437970  51.8999040  49.5236190   3.5731930
  52.0246460  50.3467360   4.0455740  52.7664600  49.3126920   3.2256080
  39.3716570  51.6167400   3.2449060  40.1079050  51.0682860   3.5157630
  39.7557490  52.4823410   3.1055050  38.3774850  50.8013470  12.4334640
  39.1787580  51.1225520  12.8470040  37.8626670  50.4409050  13.1554550
  47.2139480  46.9093340  12.3810050  46.6077640  46.9324940  11.6405800
  46.9093590  46.1776380  12.9177300  48.6439850  50.6373630  10.9919460
  49.5961600  50.5531650  10.9419700  48.4968070  51.3015340  11.6653250
  36.0972660  43.2886930  11.3770690  36.6011680  42.7094210  11.9486920
  35.3580080  43.5727160  11.9147060  43.1510600  44.6957920  10.9106210
  42.3856270  45.2642920  10.8260880  43.3326560  44.4034130  10.0174440
  50.2933950  46.4263250  11.4681230  51.0343420  46.7639010  10.9648690
  49.5306630  46.5955310  10.9151000  38.1295740  41.4316520  12.2720760
  38.1701080  41.1330390  13.1805990  38.9841240  41.8324130  12.1128280
  40.0701550  40.0108620  10.2395250  39.5398010  39.5199570   9.6118590
  40.7389620  40.4392820   9.7053180  48.9679610  44.4778080  10.0036440
  49.3820630  44.6323160  10.8526860  48.0330610  44.6033300  10.1662220
  49.4401780  41.8174240  12.0075590  50.0222550  41.0626560  11.9196070
  49.6163550  42.3481680  11.2307070  40.5573850  36.9770990  10.3192540
  40.4630720  36.3591740   9.5943410  39.9771240  37.7037280  10.0922450
  43.3235290  35.5344230   7.3519930  42.8752590  35.5568490   6.5065480
  42.6900490  35.1363250   7.9490230  43.7294840  44.4298560   7.9732370
  44.1482950  45.2731290   7.8008610  42.8103470  44.5670600   7.7439150
  46.0658740  42.1614740   9.3570210  46.1854950  41.5655880  10.0965050
  46.9252740  42.1984430   8.9371510  48.4046640  42.7151930   7.9332720
  47.8781860  43.2394550   7.3297860  48.7477980  43.3479320   8.5642450
  41.5802260  50.7351570   9.0890100  41.0423350  51.4597630   8.7698800
  41.8336220  50.2581910   8.2987440  42.8327510  38.7036090  10.6146030
  43.4227200  38.3951940  11.3023850  42.0147750  38.2315840  10.7705930
  47.6520940  38.3201900  10.8479050  46.9636460  37.6583440  10.7829040
  48.3726960  37.8740170  11.2927510  44.4364470  51.9702780   9.3476750
  44.3623170  52.8737920   9.6549120  43.5343310  51.6514680   9.3198820
  35.8391760  49.2977370   2.6510370  36.1694770  48.4298430   2.4189010
  36.2682760  49.5035890   3.4815330  36.3281970  50.1647960   5.3892000
  35.8912960  50.3448760   6.2216150  36.8959650  50.9222580   5.2473720
  51.9644150  49.6664960   9.6769310  51.3646140  49.7257520   8.9333230
  52.0938050  48.7269940   9.8066160  53.6662030  45.0080360   2.3615150
  54.0370860  44.2247680   1.9551120  54.3063960  45.6969460   2.1832450
  50.6495790  46.3916940   7.7745470  49.8355630  46.8214100   8.0371260
  51.0569990  47.0035350   7.1614520  37.1982330  43.0620760   6.2884220
  37.5655370  42.9748160   7.1680240  36.6293150  42.2987310   6.1891080
  51.9986190  41.5305140   9.3014690  51.7672280  41.3017890   8.4012640
  52.2590740  42.4504690   9.2559580  36.7498330  39.9729850  10.1942640
  35.8554380  39.9396610  10.5336350  37.2895880  40.1716640  10.9593890
  50.4374260  36.7561570  12.0794390  51.3144440  36.7644970  12.4628390
  50.4495100  36.0192410  11.4686740  51.8837530  40.6091110   2.9682410
  52.4075010  40.1153760   2.3372580  52.4696950  40.7441470   3.7129980
  52.0627250  40.6930980   6.4901960  51.1129960  40.6594520   6.6046950
  52.2440260  41.6031090   6.2551730  37.2538040  34.2478180   4.5425860
  37.9014230  33.6975560   4.1021020  37.6739880  34.5021330   5.3641670
  51.1490380  34.4419540   7.8995500  51.7862600  35.0553680   8.2654690
  51.2965270  34.4780200   6.9544730  37.0070040  34.4033850   7.2851180
  36.6584860  34.8597670   8.0509360  36.6757740  33.5090980   7.3673610
  38.6134410  47.5753450  11.4504370  38.5704040  47.2046360  12.3318830
  38.7445420  48.5131020  11.5906190  42.3140440  49.1313040   7.0514090
  42.0731800  49.3987600   6.1644610  43.2543080  49.3018770   7.1064950
  44.5194860  35.5945730  10.8070600  44.4583750  36.1867560  11.5566010
  45.4595240  35.4871690  10.6620860  47.1569420  35.2515790  10.4462890
  47.7709830  35.5695080   9.7843970  47.7018980  34.7664380  11.0658750
  53.5744600  51.1507420   7.8524730  53.0802880  51.5476290   7.1351860
  52.9657890  50.5256630   8.2462010  37.6790680  33.9310050  10.5601950
  38.2273670  33.7498100   9.7968060  37.7445990  33.1404160  11.0958260
  38.4522440  50.5215700   8.5702150  37.8582760  50.3900400   9.3092190
  38.4446280  49.6853840   8.1044250  47.8977460  33.8147930   6.7732180
  47.0237300  34.1483040   6.5705110  47.7888210  33.3421110   7.5984050
  48.8049440  36.0218800   8.1573900  48.4762800  35.2070560   7.7775630
  49.7531740  35.9788610   8.0339590  51.2584050  51.7930840   5.1311470
  50.7987020  52.5446650   4.7569490  50.6296510  51.0737310   5.0726270
  38.0834670  47.8874080   7.5210190  37.3568730  47.2679370   7.4536140
  38.1443820  48.2814690   6.6508270  41.6879770  50.1019080   4.3059600
  42.2044790  49.4906440   3.7807860  42.3377150  50.6047860   4.7970610
  44.4275270  50.9927570   5.1328580  44.7153080  50.7381870   4.2561590
  44.9398490  50.4404930   5.7234150  45.6452280  34.7317770   5.7125090
  44.8624070  35.2063270   5.9921850  45.3515210  33.8272600   5.6038270
  50.1973350  35.4340870   3.7574180  50.6381440  35.3785970   2.9095780
  49.9280940  36.3498880   3.8284360  52.0611920  35.0656110   1.7683000
  52.0000320  34.1217330   1.6214020  52.8403950  35.1736200   2.3136460
  48.0331480  33.8146970   2.4624190  48.6360850  34.3867180   2.9372710
  47.2924470  34.3786410   2.2398090  44.4947630  51.9143670  12.4996780
  45.4214940  51.6787940  12.5432740  44.4798060  52.7415670  12.0182810
  41.6811240  34.5788420  12.2638660  41.3995510  35.0822020  11.4999480
  42.0630940  33.7810170  11.8980790  48.2826700  33.9942000  12.8419130
  48.1692150  34.3136610  13.7370650  49.0996440  34.3954510  12.5456410
  51.0625190  51.1413530  12.3237820  51.8550510  50.6462760  12.1163780
  51.3558340  51.8203670  12.9313430  47.1884850  23.2390980  58.3027830
  47.1078900  22.3245590  58.0319540  46.7749270  23.7358050  57.5967540
  45.3202890  25.0170000  60.1837100  44.5444990  24.5370440  60.4735670
  45.9715820  24.3375650  60.0093260  39.3368720  25.3289810  61.0612860
  38.5053600  25.0738520  61.4609370  39.9449700  25.4000580  61.7970780
  49.3410320  29.4230190  58.9636230  48.8791850  28.6517430  59.2923400
  50.1535870  29.4496260  59.4688680  39.3169980  29.3629900  61.2570880
  39.6198020  28.4727640  61.0781100  40.0613570  29.9200120  61.0293130
  37.7460670  20.2891700  54.8455250  36.8577370  20.6307670  54.7435130
  38.0301860  20.0892020  53.9536080  35.7093680  22.8897350  60.7294950
  36.2809790  22.1219550  60.7298590  35.7095220  23.1886110  59.8201560
  45.5673630  31.7088200  58.5840220  44.9485070  32.1645700  58.0134660
  46.4225410  31.8639660  58.1829920  44.7611880  27.6927190  60.1907260
  44.6920160  26.7517130  60.0296390  45.5231740  27.7828600  60.7629830
  45.7917050  20.4997570  60.4176190  46.1681870  19.6269450  60.3049860
  45.6936560  20.8356270  59.5266630  39.9222060  18.8723200  55.8793630
  40.0288810  19.7726930  56.1862390  39.0114420  18.8241170  55.5888280
  49.5741170  17.9948010  57.3504530  50.3950790  17.5044580  57.3930010
  49.6075250  18.5845670  58.1036370  37.5705220  20.7942210  61.1246220
  38.2515330  21.0580580  61.7433620  37.2553270  19.9543080  61.4584230
  41.7629790  21.8409570  60.2118810  42.2708010  22.3390540  60.8523830
  42.2943030  21.0644770  60.0358170  46.4336980  26.5927440  55.9772130
  45.8154250  27.0576890  55.4134850  46.9460230  27.2854920  56.3941640
  49.8102650  19.9348390  60.1232070  49.1058220  20.2233280  60.7035180
  50.1714810  20.7448500  59.7631630  35.8020180  27.2783970  53.3511760
  35.4248160  27.7671070  52.6196660  36.0593250  27.9509250  53.9818290
  52.8789570  19.3803180  60.5141280  51.9314480  19.4142160  60.6456710
  53.2039560  20.1942130  60.8990640  43.4109110  15.6800360  58.8097270
  43.7184090  15.1247250  58.0932770  42.4809810  15.8144820  58.6270260
  48.9624170  31.3967650  61.1004730  48.9751330  30.9929940  60.2326990
  48.4099390  32.1714940  60.9966160  50.2569590  28.1183870  56.1894900
  50.1465920  27.1758200  56.3144320  50.2537840  28.4799510  57.0757660
  45.7989870  23.7449190  55.5457390  44.8719150  23.6786570  55.7745860
  45.9514690  24.6829320  55.4312630  45.7858950  20.0166190  52.5424550
  44.8462620  20.1780150  52.6277010  46.1042210  20.7351870  51.9960540
  49.8287160  25.3069490  56.0492640  49.2099580  24.9689040  55.4018940
  49.8111610  24.6629250  56.7571830  41.4046510  24.2713930  58.3277120
  41.0003510  23.5591180  57.8323020  41.4909630  23.9267170  59.2165160
  41.8728210  27.9581490  60.4916330  41.5756500  27.3526960  59.8124110
  42.8228030  27.9958800  60.3805690  48.0051860  24.5456300  53.0565390
  48.4445140  23.7078730  52.9103210  48.7180280  25.1785700  53.1429530
  46.1147240  29.4852370  57.0246630  46.5543150  30.2276700  56.6102020
  46.0534130  29.7278940  57.9485590  51.5869000  15.7999110  51.3706430
  51.2741660  15.8925940  52.2705500  52.3481470  16.3780140  51.3203860
  38.1051140  23.1658910  55.8283770  37.9848740  23.8921000  55.2165040
  37.7952030  22.3961820  55.3511680  35.7436510  26.3374050  61.6352410
  35.8216930  26.4722820  60.6908130  36.3578190  25.6289940  61.8280530
  36.9884140  28.0374240  58.0458590  36.5812220  28.1788830  57.1912190
  37.8797150  27.7534400  57.8429800  48.7817420  32.4721490  54.3809640
  48.6218560  32.1824430  55.2791470  48.6164130  31.6961620  53.8454870
  41.2605800  32.2520020  56.1581260  41.0848280  31.3355560  55.9449060
  40.4061540  32.6107310  56.3979060  48.4843550  29.9809050  52.9407640
  47.7908710  29.9786340  52.2809920  49.2266410  29.5568370  52.5101810
  48.0493480  31.6071760  57.0156130  48.5050430  30.8261140  57.3294750
  48.3886000  32.3178580  57.5597310  40.5714800  16.5093980  59.2107440
  40.1282950  17.2903520  58.8791960  41.1299790  16.8323870  59.9178380
  43.6873620  16.1304680  54.0913270  43.0627800  16.1264550  54.8166580
  43.6003740  15.2635640  53.6949240  42.6090700  17.0541310  61.0697040
  42.9063030  17.9604140  60.9889060  43.1576260  16.5660090  60.4556610
  40.3629020  21.6327550  56.9388690  40.1369940  21.4164720  57.8435310
  39.5821550  22.0656010  56.5934660  47.5926780  21.6390920  55.5379340
  46.9935670  22.3626720  55.3542960  48.1406390  21.5767700  54.7555790
  46.1991650  20.2754460  57.5682620  46.5921220  20.5926660  56.7551310
  46.5608500  19.3966340  57.6827140  35.2355820  16.8655260  59.7912820
  34.9468870  17.4358120  60.5037800  35.9801580  16.3859710  60.1544050
  35.4226050  20.8075380  51.0015540  35.3400720  21.7506140  51.1430530
  35.0709110  20.6650290  50.1227890  43.2224180  19.5414410  60.0685890
  43.2260240  19.1004360  59.2190430  44.1175300  19.8631740  60.1757710
  39.0726560  19.4240900  59.0280100  38.7326610  19.9016130  59.7847150
  38.3103880  18.9706020  58.6681200  43.2844330  20.5426490  53.0592650
  43.4057150  20.5012970  54.0078470  42.8992840  21.4050640  52.9039380
  47.2472700  18.3193890  61.0756340  47.2645440  18.7702540  61.9198190
  46.9988280  17.4199530  61.2889780  42.2965830  22.8527630  52.4575950
  41.7282730  22.4045880  51.8311860  43.0054830  23.2120410  51.9241100
  36.3872640  18.3459880  57.9444770  36.1019560  17.9815550  58.7823390
  36.3251500  17.6140340  57.3307910  39.8413310  26.8485820  54.7302360
  39.0675570  26.3083440  54.5701080  40.5707940  26.3292430  54.3920120
  50.6001290  25.8451180  60.5228750  51.3200410  26.3406470  60.1324860
  50.3983110  25.1669070  59.8782620  46.0611230  17.2389140  54.6658140
  45.2475840  16.7402310  54.5903450  45.8673180  18.0787390  54.2494490
  48.7759620  21.6108790  52.9620300  49.6639240  21.9226020  52.7871640
  48.7464710  20.7381040  52.5700880  39.8850710  26.5166200  58.3681170
  40.4029380  25.7134460  58.3138060  39.4334730  26.4545340  59.2098000
  44.7720210  27.7832480  53.6408470  45.1135910  28.5274710  53.1451790
  43.9432920  28.0963600  54.0033300  51.0473890  22.9220630  52.4300160
  50.9637610  23.3534850  51.5796600  51.7668080  23.3818980  52.8626980
  52.0761140  29.7762890  55.1582290  51.4337300  29.1218510  55.4326010
  51.6891800  30.1817980  54.3822960  47.6547620  27.1048320  59.0053980
  48.0071440  26.5076450  58.3455350  46.7709950  26.7792550  59.1762230
  43.7410900  27.8646010  56.4124390  44.4282030  28.4115220  56.7931980
  42.9543320  28.4086740  56.4474000  35.8803300  23.4818830  51.9041470
  36.7498150  23.7643630  52.1877390  35.3893620  24.2954700  51.7890280
  43.0438110  24.8692040  56.0249750  43.5000890  25.6797290  56.2509940
  42.6926320  24.5515180  56.8568240  38.9449890  15.2129690  56.4972270
  38.8164520  15.2047590  57.4457190  38.1211910  15.5512780  56.1463280
  50.4658520  28.6679350  51.6958640  50.2396100  27.9509790  52.2883280
  50.0754720  28.4191790  50.8580390  36.2474550  32.6946210  52.4703100
  36.6072190  33.2935550  51.8160370  36.1066890  33.2406100  53.2438130
  50.0474770  26.5851290  53.3572800  49.7596470  27.0463980  54.1450680
  50.8426940  26.1249060  53.6257020  42.2643170  30.0777410  53.2876770
  42.2553270  30.8107100  52.6721280  41.3441530  29.8308990  53.3803730
  37.8649810  25.2992300  54.0323530  37.2577760  26.0391200  54.0418830
  38.3399160  25.3891660  53.2061730  50.8044630  18.4200060  54.5167980
  50.1757790  18.5245730  53.8026210  50.3096550  18.6396840  55.3061860
  45.2502770  30.1405650  51.9501960  45.3514750  29.9369640  51.0203940
  44.3504510  29.8863930  52.1549740  42.7728660  20.6986010  55.9325860
  42.0644810  21.1672350  56.3739470  43.0573140  20.0408020  56.5671050
  46.8044090  17.4236670  57.3721650  46.6811870  17.4422800  56.4231160
  47.7528650  17.4715610  57.4920050  43.8920880  32.6591970  56.6449630
  44.1462380  32.6213360  55.7229000  42.9433360  32.5325300  56.6377880
  40.9763680  19.0071090  53.3076570  41.8254210  19.4441240  53.2416760
  40.6094950  19.3191350  54.1348630  49.8973460  23.5783850  58.2208140
  48.9563600  23.5934080  58.3955830  50.2117530  22.7919810  58.6668440
  39.8755100  25.2603450  51.7812100  40.6418370  25.1484810  52.3437530
  39.9529790  24.5641420  51.1288870  38.5701860  22.6928520  52.4644990
  38.6505450  21.7456030  52.5762390  39.4621610  23.0235400  52.5705650
  51.8999040  30.7492700  59.8962400  52.0246460  31.5723870  60.3686210
  52.7664600  30.5383430  59.5486550  39.3716570  32.8423910  59.5679530
  40.1079050  32.2939370  59.8388100  39.7557490  33.7079920  59.4285520
  36.2562050  28.9097480  55.4421040  35.3301830  29.1518620  55.4326450
  36.7218480  29.7371740  55.3205790  42.4818880  32.0154220  51.3905100
  43.2747490  32.3043050  50.9386890  41.9623230  31.5846390  50.7117580
  51.5349050  31.2424350  52.8141840  51.2490560  30.8289490  51.9996020
  51.3368600  32.1712060  52.6942360  42.9996280  27.2357630  51.2547450
  42.8946920  26.6209980  51.9808830  42.8320500  26.7123520  50.4710460
  46.2399010  26.2977660  51.8589440  45.6909110  26.7446960  52.5032180
  46.8618270  25.7926910  52.3827110  41.9074130  25.2568580  53.7554740
  42.3290550  25.0908450  54.5986130  42.0324970  24.4468810  53.2609880
  44.4201770  24.2806190  51.0031840  44.9407430  23.5655210  50.6372990
  45.0670170  24.9192060  51.3032350  40.8033030  21.3301810  50.7012900
  40.6022090  20.4669170  51.0626240  40.6325080  21.2435170  49.7634500
  48.2821340  16.1410040  53.2299780  48.5623630  15.2977940  53.5859200
  47.5087070  16.3733150  53.7438530  39.6015830  18.4302430  50.6890780
  39.9041730  18.4369860  49.7809930  40.3410420  18.0800290  51.1858440
  42.8200760  17.3737050  51.6746980  42.4722760  16.6961040  51.0949430
  43.0213530  16.9126560  52.4890370  44.9849800  32.3617800  53.2933580
  45.8800590  32.7002770  53.3152340  45.0167430  31.6397210  52.6657860
  38.6245960  27.7344850  51.5220580  39.0620830  28.2774520  52.1778160
  39.1093690  26.9091800  51.5316920  35.8391760  30.5233880  58.9740840
  36.1694770  29.6554940  58.7419480  36.2682760  30.7292400  59.8045800
  40.4353680  28.8542890  56.6342810  40.1349220  28.7307860  57.5346720
  40.3291170  27.9951480  56.2258540  53.2045600  28.6339290  51.3369490
  52.3738560  28.7015940  51.8076720  53.3817430  29.5243410  51.0336350
  52.6602060  25.3786770  53.8403690  53.4220970  25.9483420  53.9463380
  52.6756430  24.8113970  54.6112000  36.1606400  23.9024700  58.0711350
  35.5055240  23.6336340  57.4271050  36.9984350  23.7929180  57.6213330
  53.6662030  26.2336870  58.6845620  54.0370860  25.4504190  58.2781590
  54.3063960  26.9225970  58.5062920  52.7121230  25.6721140  50.9976210
  52.9870070  26.5800020  50.8695430  52.5231970  25.6083670  51.9338200
  49.1096840  18.6965990  52.2929840  49.5281720  18.5096970  51.4526500
  48.8032900  17.8445040  52.6032770  52.6086570  23.6090130  55.9905640
  52.2330170  22.8418060  55.5586930  51.8789690  23.9912830  56.4780570
  35.3744480  21.1123630  54.0136680  34.4708560  21.3753830  53.8388340
  35.8585100  21.3834800  53.2336640  51.8837530  21.8347620  59.2912880
  52.4075010  21.3410270  58.6603050  52.4696950  21.9697980  60.0360450
  37.9171690  20.1689170  51.9231060  38.6263390  19.7472390  51.4378340
  37.2011630  20.2364400  51.2914410  37.5645850  16.2228500  50.9633710
  38.2873980  16.7637440  51.2814930  37.8370370  15.9491920  50.0875250
  51.3737500  21.0920970  55.2305290  51.8696620  20.8591840  56.0154170
  51.1753570  20.2532810  54.8142930  37.2538040  15.4734690  60.8656330
  37.9014230  14.9232070  60.4251490  37.6739880  15.7277840  61.6872140
  52.8024660  19.7281920  57.7642970  52.6923940  19.5737960  58.7025240
  53.5632250  19.2002860  57.5218380  53.6914930  17.5589840  51.0049110
  54.6164240  17.4271020  50.7967400  53.6690720  17.6382660  51.9585560
  53.7653420  18.3300500  53.6305820  52.9704920  18.2645620  54.1598730
  53.9696700  19.2651140  53.6191170  50.7071840  32.3692050  57.6244210
  51.3030910  32.0476620  56.9478630  50.9649990  31.8963870  58.4157480
  51.2584050  33.0187350  61.4541940  50.7987020  33.7703160  61.0799960
  50.6296510  32.2993820  61.3956740  41.6879770  31.3275590  60.6290070
  42.2044790  30.7162950  60.1038330  42.3377150  31.8304370  61.1201080
  50.1973350  16.6597380  60.0804650  50.6381440  16.6042480  59.2326250
  49.9280940  17.5755390  60.1514830  52.0611920  16.2912620  58.0913470
  52.0000320  15.3473840  57.9444490  52.8403950  16.3992710  58.6366930
  36.3664670  32.4304980  57.0537420  36.1986710  31.7975660  57.7519310
  35.4999180  32.6364380  56.7031610  36.9892690  16.2621760  54.5569280
  37.7472050  16.3750640  53.9833310  36.5269860  17.0990960  54.5112710
  43.5306500  18.3761030  57.5471590  42.7181010  18.0017920  57.2067470
  44.0348140  17.6206110  57.8492780  48.0331480  15.0403480  58.7854660
  48.6360850  15.6123690  59.2603180  47.2924470  15.6042920  58.5628560
  51.1766080  15.4425040  54.0594940  51.3716710  16.3408490  54.3262370
  50.3895950  15.2112120  54.5527890  37.9727370  31.1238210  54.4987560
  37.4474990  31.5046240  53.7949520  37.8971950  31.7488980  55.2197270
  39.3617840  16.7885810  53.0971250  39.8910600  16.0015610  52.9679200
  39.9946160  17.4677000  53.3306780  41.5555680  16.5260950  56.1516640
  40.9258420  15.8248260  56.3186770  41.0160820  17.2865080  55.9349800
  52.7292690  32.6825750  55.8201500  52.9044880  31.9963490  55.1762420
  52.0314260  33.2072800  55.4278170  40.5720340  33.0720590  53.3736810
  41.3039160  32.7879870  52.8260700  40.8314010  32.8333870  54.2636190
  39.7335130  29.1885320  53.3783140  39.1044010  29.6570420  53.9268970
  39.8482960  28.3434540  53.8129330  36.9518550  18.2981710  43.7420390
  36.7721390  17.4007460  44.0223150  36.5498630  18.8453580  44.4167340
  45.7917050  20.4997570  41.6432700  46.1681870  19.6269450  41.5306370
  45.6936560  20.8356270  40.7523140  37.5705220  20.7942210  42.3502730
  38.2515330  21.0580580  42.9690130  37.2553270  19.9543080  42.6840740
  53.8640720  20.0114760  45.1404670  53.1592890  20.3996470  44.6219780
  54.1298640  20.7065050  45.7425600  40.0465890  16.4808130  45.7038740
  40.0484330  16.9980520  44.8984640  39.2170200  16.0038310  45.6808670
  49.8102650  19.9348390  41.3488580  49.1058220  20.2233280  41.9291690
  50.1714810  20.7448500  40.9888140  39.7281220  18.1918090  43.7109190
  40.0698030  19.0360140  43.4163060  38.7897030  18.3401830  43.8274530
  52.8789570  19.3803180  41.7397790  51.9314480  19.4142160  41.8713220
  53.2039560  20.1942130  42.1247150  40.1175130  21.0457140  43.3332670
  40.6689720  21.1552480  42.5585920  40.6318640  21.4194740  44.0487900
  40.9646640  27.6963180  48.3680640  40.0675170  27.9203150  48.6154040
  40.9899510  27.8198120  47.4192040  39.7917860  24.5676500  46.9438010
  39.6525630  25.4399300  47.3125410  38.9099220  24.2249310  46.7985950
  41.5898210  30.5098200  49.1523160  41.5613640  30.9141150  48.2851590
  41.4263180  29.5808560  48.9894760  53.5413030  31.2925300  50.4487330
  54.0172750  31.7708190  51.1276410  54.1620190  31.2242790  49.7232830
  52.9446280  28.4838150  47.6087340  53.0709340  28.2450030  46.6904520
  52.9867660  27.6522690  48.0809420  52.7970290  20.5370610  48.5737080
  52.1814560  21.0450280  48.0452540  52.4766710  19.6368940  48.5163020
  44.8584610  19.3762500  46.0399270  44.3963980  19.5845520  46.8519210
  44.4562720  18.5621850  45.7369940  49.8589120  20.5971450  47.1695930
  49.0082710  20.2977200  47.4905000  49.6990910  20.8413460  46.2579750
  46.9538830  22.0973200  49.2694720  47.2792240  21.2636950  48.9296950
  47.7419160  22.6201720  49.4173050  42.8028230  22.5313130  48.8305470
  42.7071830  21.5907860  48.6805870  43.6460210  22.7528200  48.4353540
  37.9338770  18.9426800  46.9839250  37.5402160  19.7902010  47.1912030
  37.2457170  18.3053170  47.1747890  44.5083820  19.0261770  50.0535990
  43.8182140  18.8333970  50.6882080  45.2516120  19.3096410  50.5860290
  35.2355820  16.8655260  41.0169330  34.9468870  17.4358120  41.7294310
  35.9801580  16.3859710  41.3800560  47.2472700  18.3193890  42.3012850
  47.2645440  18.7702540  43.1454700  46.9988280  17.4199530  42.5146290
  50.6743450  15.7326070  48.1399230  50.9989220  15.0015730  48.6657210
  50.7099960  15.4139710  47.2380220  41.3131520  22.6424830  45.3592020
  41.0088590  23.5216810  45.5842380  42.2677980  22.7024620  45.3949460
  37.3695250  23.4827570  46.5063380  37.0110190  24.1481420  47.0936720
  37.0749810  22.6511120  46.8776000  40.5708370  23.9411810  49.3902930
  40.2708510  24.0868990  48.4930750  41.3419610  23.3817100  49.2976320
  45.9136820  28.7380810  47.3858060  45.9281360  27.8061770  47.1676970
  45.2061920  28.8240570  48.0247830  52.1248030  25.3788150  46.7326640
  51.3996220  25.9716930  46.5356030  52.6523490  25.3711690  45.9340010
  38.9449890  15.2129690  37.7228780  38.8164520  15.2047590  38.6713700
  38.1211910  15.5512780  37.3719790  48.3940420  29.1825630  46.4012070
  48.7296660  29.7692320  47.0789990  47.4740760  29.0518340  46.6309860
  35.9443820  16.9720810  47.1835480  35.2302340  17.1717730  47.7888090
  36.3638860  16.1960380  47.5550280  44.2229000  29.2316960  49.5700130
  43.9025870  28.5126200  50.1145820  43.5487360  29.9072030  49.6436190
  47.4382600  19.4643120  44.9336930  47.8063420  18.6438330  45.2616500
  46.5780800  19.5245010  45.3492580  44.3984590  22.1182710  45.1574900
  44.8969840  22.5928530  45.8226750  44.5407540  21.1946230  45.3644930
  51.6051450  18.3350670  46.0003290  51.1025050  19.0756070  46.3397100
  52.4208110  18.7234670  45.6840080  38.3774850  32.0269980  49.9821620
  39.1787580  32.3482030  50.3957020  37.8626670  31.6665560  50.7041530
  47.2139480  28.1349850  49.9297030  46.6077640  28.1581450  49.1892780
  46.9093590  27.4032890  50.4664280  48.6439850  31.8630140  48.5406440
  49.5961600  31.7788160  48.4906680  48.4968070  32.5271850  49.2140230
  36.0972660  24.5143440  48.9257670  36.6011680  23.9350720  49.4973900
  35.3580080  24.7983670  49.4634040  43.1510600  25.9214430  48.4593190
  42.3856270  26.4899430  48.3747860  43.3326560  25.6290640  47.5661420
  50.2933950  27.6519760  49.0168210  51.0343420  27.9895520  48.5135670
  49.5306630  27.8211820  48.4637980  38.1295740  22.6573030  49.8207740
  38.1701080  22.3586900  50.7292970  38.9841240  23.0580640  49.6615260
  40.0701550  21.2365130  47.7882230  39.5398010  20.7456080  47.1605570
  40.7389620  21.6649330  47.2540160  49.4401780  23.0430750  49.5562570
  50.0222550  22.2883070  49.4683050  49.6163550  23.5738190  48.7794050
  40.5573850  18.2027500  47.8679520  40.4630720  17.5848250  47.1430390
  39.9771240  18.9293790  47.6409430  43.3235290  16.7600740  44.9006910
  42.8752590  16.7825000  44.0552460  42.6900490  16.3619760  45.4977210
  42.8327510  19.9292600  48.1633010  43.4227200  19.6208450  48.8510830
  42.0147750  19.4572350  48.3192910  47.6520940  19.5458410  48.3966030
  46.9636460  18.8839950  48.3316020  48.3726960  19.0996680  48.8414490
  51.9644150  30.8921470  47.2256290  51.3646140  30.9514030  46.4820210
  52.0938050  29.9526450  47.3553140  51.9986190  22.7561650  46.8501670
  51.7672280  22.5274400  45.9499620  52.2590740  23.6761200  46.8046560
  36.7498330  21.1986360  47.7429620  35.8554380  21.1653120  48.0823330
  37.2895880  21.3973150  48.5080870  50.4374260  17.9818080  49.6281370
  51.3144440  17.9901480  50.0115370  50.4495100  17.2448920  49.0173720
  51.8837530  21.8347620  40.5169390  52.4075010  21.3410270  39.8859560
  52.4696950  21.9697980  41.2616960  51.3737500  21.0920970  36.4561800
  51.8696620  20.8591840  37.2410680  51.1753570  20.2532810  36.0399440
  37.2538040  15.4734690  42.0912840  37.9014230  14.9232070  41.6508000
  37.6739880  15.7277840  42.9128650  52.8024660  19.7281920  38.9899480
  52.6923940  19.5737960  39.9281750  53.5632250  19.2002860  38.7474890
  51.1490380  15.6676050  45.4482480  51.7862600  16.2810190  45.8141670
  51.2965270  15.7036710  44.5031710  53.6914930  17.5589840  32.2305620
  54.6164240  17.4271020  32.0223910  53.6690720  17.6382660  33.1842070
  53.7653420  18.3300500  34.8562330  52.9704920  18.2645620  35.3855240
  53.9696700  19.2651140  34.8447680  37.0070040  15.6290360  44.8338160
  36.6584860  16.0854180  45.5996340  36.6757740  14.7347490  44.9160590
  38.6134410  28.8009960  48.9991350  38.5704040  28.4302870  49.8805810
  38.7445420  29.7387530  49.1393170  44.5194860  16.8202240  48.3557580
  44.4583750  17.4124070  49.1052990  45.4595240  16.7128200  48.2107840
  47.1569420  16.4772300  47.9949870  47.7709830  16.7951590  47.3330950
  47.7018980  15.9920890  48.6145730  37.6790680  15.1566560  48.1088930
  38.2273670  14.9754610  47.3455040  37.7445990  14.3660670  48.6445240
  47.8977460  15.0404440  44.3219160  47.0237300  15.3739550  44.1192090
  47.7888210  14.5677620  45.1471030  48.8049440  17.2475310  45.7060880
  48.4762800  16.4327070  45.3262610  49.7531740  17.2045120  45.5826570
  45.6452280  15.9574280  43.2612070  44.8624070  16.4319780  43.5408830
  45.3515210  15.0529110  43.1525250  50.1973350  16.6597380  41.3061160
  50.6381440  16.6042480  40.4582760  49.9280940  17.5755390  41.3771340
  52.0611920  16.2912620  39.3169980  52.0000320  15.3473840  39.1701000
  52.8403950  16.3992710  39.8623440  36.9892690  16.2621760  35.7825790
  37.7472050  16.3750640  35.2089820  36.5269860  17.0990960  35.7369220
  48.0331480  15.0403480  40.0111170  48.6360850  15.6123690  40.4859690
  47.2924470  15.6042920  39.7885070  44.4947630  33.1400180  50.0483760
  45.4214940  32.9044450  50.0919720  44.4798060  33.9672180  49.5669790
  41.6811240  15.8044930  49.8125640  41.3995510  16.3078530  49.0486460
  42.0630940  15.0066680  49.4467770  48.2826700  15.2198510  50.3906110
  48.1692150  15.5393120  51.2857630  49.0996440  15.6211020  50.0943390
  51.0625190  32.3670040  49.8724800  51.8550510  31.8719270  49.6650760
  51.3558340  33.0460180  50.4800410  47.1884850  23.2390980  20.7540850
  47.1078900  22.3245590  20.4832560  46.7749270  23.7358050  20.0480560
  45.3202890  25.0170000  22.6350120  44.5444990  24.5370440  22.9248690
  45.9715820  24.3375650  22.4606280  49.3410320  29.4230190  21.4149250
  48.8791850  28.6517430  21.7436420  50.1535870  29.4496260  21.9201700
  45.7917050  20.4997570  22.8689210  46.1681870  19.6269450  22.7562880
  45.6936560  20.8356270  21.9779650  39.9222060  18.8723200  18.3306650
  40.0288810  19.7726930  18.6375410  39.0114420  18.8241170  18.0401300
  49.5741170  17.9948010  19.8017550  50.3950790  17.5044580  19.8443030
  49.6075250  18.5845670  20.5549390  41.7629790  21.8409570  22.6631830
  42.2708010  22.3390540  23.3036850  42.2943030  21.0644770  22.4871190
  53.8640720  20.0114760  26.3661180  53.1592890  20.3996470  25.8476290
  54.1298640  20.7065050  26.9682110  46.4336980  26.5927440  18.4285150
  45.8154250  27.0576890  17.8647870  46.9460230  27.2854920  18.8454660
  49.8102650  19.9348390  22.5745090  49.1058220  20.2233280  23.1548200
  50.1714810  20.7448500  22.2144650  51.4265430  29.5523520  24.8372570
  50.7428950  30.2222630  24.8289240  51.9659720  29.7504170  24.0717430
  52.8789570  19.3803180  22.9654300  51.9314480  19.4142160  23.0969730
  53.2039560  20.1942130  23.3503660  43.4109110  15.6800360  21.2610290
  43.7184090  15.1247250  20.5445790  42.4809810  15.8144820  21.0783280
  50.2569590  28.1183870  18.6407920  50.1465920  27.1758200  18.7657340
  50.2537840  28.4799510  19.5270680  48.3609610  26.2997490  24.8800360
  48.7778400  26.0857600  24.0453820  49.0849430  26.5570280  25.4508980
  45.7989870  23.7449190  17.9970410  44.8719150  23.6786570  18.2258880
  45.9514690  24.6829320  17.8825650  45.7858950  20.0166190  14.9937570
  44.8462620  20.1780150  15.0790030  46.1042210  20.7351870  14.4473560
  52.3071710  24.6984710  24.9716600  51.4790340  24.7677800  24.4966730
  52.9022190  25.2839020  24.5032430  49.8287160  25.3069490  18.5005660
  49.2099580  24.9689040  17.8531960  49.8111610  24.6629250  19.2084850
  48.0051860  24.5456300  15.5078410  48.4445140  23.7078730  15.3616230
  48.7180280  25.1785700  15.5942550  46.1147240  29.4852370  19.4759650
  46.5543150  30.2276700  19.0615040  46.0534130  29.7278940  20.3998610
  51.5869000  15.7999110  13.8219450  51.2741660  15.8925940  14.7218520
  52.3481470  16.3780140  13.7716880  48.7817420  32.4721490  16.8322660
  48.6218560  32.1824430  17.7304490  48.6164130  31.6961620  16.2967890
  48.4843550  29.9809050  15.3920660  47.7908710  29.9786340  14.7322940
  49.2266410  29.5568370  14.9614830  48.0493480  31.6071760  19.4669150
  48.5050430  30.8261140  19.7807770  48.3886000  32.3178580  20.0110330
  52.7970290  20.5370610  29.7993590  52.1814560  21.0450280  29.2709050
  52.4766710  19.6368940  29.7419530  40.5714800  16.5093980  21.6620460
  40.1282950  17.2903520  21.3304980  41.1299790  16.8323870  22.3691400
  43.6873620  16.1304680  16.5426290  43.0627800  16.1264550  17.2679600
  43.6003740  15.2635640  16.1462260  42.6090700  17.0541310  23.5210060
  42.9063030  17.9604140  23.4402080  43.1576260  16.5660090  22.9069630
  40.3629020  21.6327550  19.3901710  40.1369940  21.4164720  20.2948330
  39.5821550  22.0656010  19.0447680  47.5926780  21.6390920  17.9892360
  46.9935670  22.3626720  17.8055980  48.1406390  21.5767700  17.2068810
  46.1991650  20.2754460  20.0195640  46.5921220  20.5926660  19.2064330
  46.5608500  19.3966340  20.1340160  46.7846790  22.8660210  24.1146420
  46.0527910  23.3747020  24.4636520  46.3871130  22.0490190  23.8135200
  43.2224180  19.5414410  22.5198910  43.2260240  19.1004360  21.6703450
  44.1175300  19.8631740  22.6270730  43.2844330  20.5426490  15.5105670
  43.4057150  20.5012970  16.4591490  42.8992840  21.4050640  15.3552400
  47.2472700  18.3193890  23.5269360  47.2645440  18.7702540  24.3711210
  46.9988280  17.4199530  23.7402800  42.2965830  22.8527630  14.9088970
  41.7282730  22.4045880  14.2824880  43.0054830  23.2120410  14.3754120
  50.6001290  25.8451180  22.9741770  51.3200410  26.3406470  22.5837880
  50.3983110  25.1669070  22.3295640  46.0611230  17.2389140  17.1171160
  45.2475840  16.7402310  17.0416470  45.8673180  18.0787390  16.7007510
  48.7759620  21.6108790  15.4133320  49.6639240  21.9226020  15.2384660
  48.7464710  20.7381040  15.0213900  44.7720210  27.7832480  16.0921490
  45.1135910  28.5274710  15.5964810  43.9432920  28.0963600  16.4546320
  51.0473890  22.9220630  14.8813180  50.9637610  23.3534850  14.0309620
  51.7668080  23.3818980  15.3140000  52.1248030  25.3788150  27.9583150
  51.3996220  25.9716930  27.7612540  52.6523490  25.3711690  27.1596520
  52.0761140  29.7762890  17.6095310  51.4337300  29.1218510  17.8839030
  51.6891800  30.1817980  16.8335980  47.6547620  27.1048320  21.4567000
  48.0071440  26.5076450  20.7968370  46.7709950  26.7792550  21.6275250
  43.0438110  24.8692040  18.4762770  43.5000890  25.6797290  18.7022960
  42.6926320  24.5515180  19.3081260  38.9449890  15.2129690  18.9485290
  38.8164520  15.2047590  19.8970210  38.1211910  15.5512780  18.5976300
  46.6202800  28.3830730  24.4232520  47.2625030  27.6823890  24.5364690
  47.1452150  29.1629170  24.2429410  50.4658520  28.6679350  14.1471660
  50.2396100  27.9509790  14.7396300  50.0754720  28.4191790  13.3093410
  50.0474770  26.5851290  15.8085820  49.7596470  27.0463980  16.5963700
  50.8426940  26.1249060  16.0770040  50.8044630  18.4200060  16.9681000
  50.1757790  18.5245730  16.2539230  50.3096550  18.6396840  17.7574880
  45.2502770  30.1405650  14.4014980  45.3514750  29.9369640  13.4716960
  44.3504510  29.8863930  14.6062760  42.7728660  20.6986010  18.3838880
  42.0644810  21.1672350  18.8252490  43.0573140  20.0408020  19.0184070
  46.8044090  17.4236670  19.8234670  46.6811870  17.4422800  18.8744180
  47.7528650  17.4715610  19.9433070  40.9763680  19.0071090  15.7589590
  41.8254210  19.4441240  15.6929780  40.6094950  19.3191350  16.5861650
  51.6051450  18.3350670  27.2259800  51.1025050  19.0756070  27.5653610
  52.4208110  18.7234670  26.9096590  49.8973460  23.5783850  20.6721160
  48.9563600  23.5934080  20.8468850  50.2117530  22.7919810  21.1181460
  51.8999040  30.7492700  22.3475420  52.0246460  31.5723870  22.8199230
  52.7664600  30.5383430  21.9999570  42.4818880  32.0154220  13.8418120
  43.2747490  32.3043050  13.3899910  41.9623230  31.5846390  13.1630600
  51.5349050  31.2424350  15.2654860  51.2490560  30.8289490  14.4509040
  51.3368600  32.1712060  15.1455380  42.9996280  27.2357630  13.7060470
  42.8946920  26.6209980  14.4321850  42.8320500  26.7123520  12.9223480
  46.2399010  26.2977660  14.3102460  45.6909110  26.7446960  14.9545200
  46.8618270  25.7926910  14.8340130  41.9074130  25.2568580  16.2067760
  42.3290550  25.0908450  17.0499150  42.0324970  24.4468810  15.7122900
  44.4201770  24.2806190  13.4544860  44.9407430  23.5655210  13.0886010
  45.0670170  24.9192060  13.7545370  40.8033030  21.3301810  13.1525920
  40.6022090  20.4669170  13.5139260  40.6325080  21.2435170  12.2147520
  48.2821340  16.1410040  15.6812800  48.5623630  15.2977940  16.0372220
  47.5087070  16.3733150  16.1951550  39.6015830  18.4302430  13.1403800
  39.9041730  18.4369860  12.2322950  40.3410420  18.0800290  13.6371460
  42.8200760  17.3737050  14.1260000  42.4722760  16.6961040  13.5462450
  43.0213530  16.9126560  14.9403390  53.2045600  28.6339290  13.7882510
  52.3738560  28.7015940  14.2589740  53.3817430  29.5243410  13.4849370
  52.6602060  25.3786770  16.2916710  53.4220970  25.9483420  16.3976400
  52.6756430  24.8113970  17.0625020  53.6662030  26.2336870  21.1358640
  54.0370860  25.4504190  20.7294610  54.3063960  26.9225970  20.9575940
  50.6495790  27.6173450  26.5488960  49.8355630  28.0470610  26.8114750
  51.0569990  28.2291860  25.9358010  52.7121230  25.6721140  13.4489230
  52.9870070  26.5800020  13.3208450  52.5231970  25.6083670  14.3851220
  49.1096840  18.6965990  14.7442860  49.5281720  18.5096970  13.9039520
  48.8032900  17.8445040  15.0545790  52.6086570  23.6090130  18.4418660
  52.2330170  22.8418060  18.0099950  51.8789690  23.9912830  18.9293590
  51.9986190  22.7561650  28.0758180  51.7672280  22.5274400  27.1756130
  52.2590740  23.6761200  28.0303070  51.8837530  21.8347620  21.7425900
  52.4075010  21.3410270  21.1116070  52.4696950  21.9697980  22.4873470
  52.0627250  21.9187490  25.2645450  51.1129960  21.8851030  25.3790440
  52.2440260  22.8287600  25.0295220  37.9171690  20.1689170  14.3744080
  38.6263390  19.7472390  13.8891360  37.2011630  20.2364400  13.7427430
  37.5645850  16.2228500  13.4146730  38.2873980  16.7637440  13.7327950
  37.8370370  15.9491920  12.5388270  51.3737500  21.0920970  17.6818310
  51.8696620  20.8591840  18.4667190  51.1753570  20.2532810  17.2655950
  52.8024660  19.7281920  20.2155990  52.6923940  19.5737960  21.1538260
  53.5632250  19.2002860  19.9731400  51.1490380  15.6676050  26.6738990
  51.7862600  16.2810190  27.0398180  51.2965270  15.7036710  25.7288220
  53.6914930  17.5589840  13.4562130  54.6164240  17.4271020  13.2480420
  53.6690720  17.6382660  14.4098580  53.7653420  18.3300500  16.0818840
  52.9704920  18.2645620  16.6111750  53.9696700  19.2651140  16.0704190
  50.7071840  32.3692050  20.0757230  51.3030910  32.0476620  19.3991650
  50.9649990  31.8963870  20.8670500  47.8977460  15.0404440  25.5475670
  47.0237300  15.3739550  25.3448600  47.7888210  14.5677620  26.3727540
  45.6452280  15.9574280  24.4868580  44.8624070  16.4319780  24.7665340
  45.3515210  15.0529110  24.3781760  50.1973350  16.6597380  22.5317670
  50.6381440  16.6042480  21.6839270  49.9280940  17.5755390  22.6027850
  52.0611920  16.2912620  20.5426490  52.0000320  15.3473840  20.3957510
  52.8403950  16.3992710  21.0879950  43.5306500  18.3761030  19.9984610
  42.7181010  18.0017920  19.6580490  44.0348140  17.6206110  20.3005800
  48.0331480  15.0403480  21.2367680  48.6360850  15.6123690  21.7116200
  47.2924470  15.6042920  21.0141580  51.1766080  15.4425040  16.5107960
  51.3716710  16.3408490  16.7775390  50.3895950  15.2112120  17.0040910
  39.3617840  16.7885810  15.5484270  39.8910600  16.0015610  15.4192220
  39.9946160  17.4677000  15.7819800  41.5555680  16.5260950  18.6029660
  40.9258420  15.8248260  18.7699790  41.0160820  17.2865080  18.3862820
  52.7292690  32.6825750  18.2714520  52.9044880  31.9963490  17.6275440
  52.0314260  33.2072800  17.8791190  45.3202890  25.0170000   3.8606630
  44.5444990  24.5370440   4.1505200  45.9715820  24.3375650   3.6862790
  39.3368720  25.3289810   4.7382390  38.5053600  25.0738520   5.1378900
  39.9449700  25.4000580   5.4740310  49.3410320  29.4230190   2.6405760
  48.8791850  28.6517430   2.9692930  50.1535870  29.4496260   3.1458210
  39.3169980  29.3629900   4.9340410  39.6198020  28.4727640   4.7550630
  40.0613570  29.9200120   4.7062660  35.7093680  22.8897350   4.4064480
  36.2809790  22.1219550   4.4068120  35.7095220  23.1886110   3.4971090
  45.5673630  31.7088200   2.2609750  44.9485070  32.1645700   1.6904190
  46.4225410  31.8639660   1.8599450  44.7611880  27.6927190   3.8676790
  44.6920160  26.7517130   3.7065920  45.5231740  27.7828600   4.4399360
  36.9518550  18.2981710   6.1933410  36.7721390  17.4007460   6.4736170
  36.5498630  18.8453580   6.8680360  45.7917050  20.4997570   4.0945720
  46.1681870  19.6269450   3.9819390  45.6936560  20.8356270   3.2036160
  37.5705220  20.7942210   4.8015750  38.2515330  21.0580580   5.4203150
  37.2553270  19.9543080   5.1353760  41.7629790  21.8409570   3.8888340
  42.2708010  22.3390540   4.5293360  42.2943030  21.0644770   3.7127700
  53.8640720  20.0114760   7.5917690  53.1592890  20.3996470   7.0732800
  54.1298640  20.7065050   8.1938620  40.0465890  16.4808130   8.1551760
  40.0484330  16.9980520   7.3497660  39.2170200  16.0038310   8.1321690
  41.2968740  26.1203310   6.3325260  40.9638120  26.7472230   6.9746330
  41.4735420  26.6465190   5.5526930  49.8102650  19.9348390   3.8001600
  49.1058220  20.2233280   4.3804710  50.1714810  20.7448500   3.4401160
  39.7281220  18.1918090   6.1622210  40.0698030  19.0360140   5.8676080
  38.7897030  18.3401830   6.2787550  40.5087840  28.0884110   8.1474440
  41.1261840  28.7635190   7.8658890  39.6480960  28.4972090   8.0561940
  51.4265430  29.5523520   6.0629080  50.7428950  30.2222630   6.0545750
  51.9659720  29.7504170   5.2973940  52.8789570  19.3803180   4.1910810
  51.9314480  19.4142160   4.3226240  53.2039560  20.1942130   4.5760170
  43.4109110  15.6800360   2.4866800  43.7184090  15.1247250   1.7702300
  42.4809810  15.8144820   2.3039790  48.9624170  31.3967650   4.7774260
  48.9751330  30.9929940   3.9096520  48.4099390  32.1714940   4.6735690
  48.3609610  26.2997490   6.1056870  48.7778400  26.0857600   5.2710330
  49.0849430  26.5570280   6.6765490  52.3071710  24.6984710   6.1973110
  51.4790340  24.7677800   5.7223240  52.9022190  25.2839020   5.7288940
  49.2713720  21.4854030   7.1427980  48.8584900  22.3107740   7.3967970
  48.5389670  20.8999070   6.9504340  41.8728210  27.9581490   4.1685860
  41.5756500  27.3526960   3.4893640  42.8228030  27.9958800   4.0575220
  40.1175130  21.0457140   5.7845690  40.6689720  21.1552480   5.0098940
  40.6318640  21.4194740   6.5000920  49.9613820  31.5313360   7.8308960
  49.4844380  32.3385550   7.6381570  49.2775610  30.8791690   7.9835170
  40.9646640  27.6963180  10.8193660  40.0675170  27.9203150  11.0667060
  40.9899510  27.8198120   9.8705060  39.7917860  24.5676500   9.3951030
  39.6525630  25.4399300   9.7638430  38.9099220  24.2249310   9.2498970
  41.5898210  30.5098200  11.6036180  41.5613640  30.9141150  10.7364610
  41.4263180  29.5808560  11.4407780  53.5413030  31.2925300  12.9000350
  54.0172750  31.7708190  13.5789430  54.1620190  31.2242790  12.1745850
  35.7436510  26.3374050   5.3121940  35.8216930  26.4722820   4.3677660
  36.3578190  25.6289940   5.5050060  52.9446280  28.4838150  10.0600360
  53.0709340  28.2450030   9.1417540  52.9867660  27.6522690  10.5322440
  46.8063020  32.1866150   8.6295170  47.3207690  32.0974160   9.4317600
  45.9632100  32.5325850   8.9223080  52.7970290  20.5370610  11.0250100
  52.1814560  21.0450280  10.4965560  52.4766710  19.6368940  10.9676040
  35.7996030  27.3788220   7.8516400  35.9627070  26.9093580   7.0335770
  36.2648480  26.8711780   8.5165240  40.5714800  16.5093980   2.8876970
  40.1282950  17.2903520   2.5561490  41.1299790  16.8323870   3.5947910
  44.8584610  19.3762500   8.4912290  44.3963980  19.5845520   9.3032230
  44.4562720  18.5621850   8.1882960  49.8589120  20.5971450   9.6208950
  49.0082710  20.2977200   9.9418020  49.6990910  20.8413460   8.7092770
  46.9538830  22.0973200  11.7207740  47.2792240  21.2636950  11.3809970
  47.7419160  22.6201720  11.8686070  42.6090700  17.0541310   4.7466570
  42.9063030  17.9604140   4.6658590  43.1576260  16.5660090   4.1326140
  42.8028230  22.5313130  11.2818490  42.7071830  21.5907860  11.1318890
  43.6460210  22.7528200  10.8866560  37.9338770  18.9426800   9.4352270
  37.5402160  19.7902010   9.6425050  37.2457170  18.3053170   9.6260910
  44.5083820  19.0261770  12.5049010  43.8182140  18.8333970  13.1395100
  45.2516120  19.3096410  13.0373310  35.2355820  16.8655260   3.4682350
  34.9468870  17.4358120   4.1807330  35.9801580  16.3859710   3.8313580
  46.7846790  22.8660210   5.3402930  46.0527910  23.3747020   5.6893030
  46.3871130  22.0490190   5.0391710  43.2224180  19.5414410   3.7455420
  43.2260240  19.1004360   2.8959960  44.1175300  19.8631740   3.8527240
  39.0726560  19.4240900   2.7049630  38.7326610  19.9016130   3.4616680
  38.3103880  18.9706020   2.3450730  47.2472700  18.3193890   4.7525870
  47.2645440  18.7702540   5.5967720  46.9988280  17.4199530   4.9659310
  50.6743450  15.7326070  10.5912250  50.9989220  15.0015730  11.1170230
  50.7099960  15.4139710   9.6893240  37.3735010  26.7539650  10.0112210
  36.9889800  26.1133320  10.6095170  37.6847200  27.4575770  10.5806940
  43.5232150  23.6016190   5.4920830  43.8902280  23.1274760   6.2382170
  43.3337210  24.4757760   5.8329170  41.3131520  22.6424830   7.8105040
  41.0088590  23.5216810   8.0355400  42.2677980  22.7024620   7.8462480
  50.6001290  25.8451180   4.1998280  51.3200410  26.3406470   3.8094390
  50.3983110  25.1669070   3.5552150  45.9820090  25.9160240  10.0867280
  45.9157400  24.9955910   9.8324870  45.3525230  26.0135680  10.8011920
  39.8850710  26.5166200   2.0450700  40.4029380  25.7134460   1.9907590
  39.4334730  26.4545340   2.8867530  37.3695250  23.4827570   8.9576400
  37.0110190  24.1481420   9.5449740  37.0749810  22.6511120   9.3289020
  40.5708370  23.9411810  11.8415950  40.2708510  24.0868990  10.9443770
  41.3419610  23.3817100  11.7489340  45.9136820  28.7380810   9.8371080
  45.9281360  27.8061770   9.6189990  45.2061920  28.8240570  10.4760850
  52.1248030  25.3788150   9.1839660  51.3996220  25.9716930   8.9869050
  52.6523490  25.3711690   8.3853030  47.6547620  27.1048320   2.6823510
  48.0071440  26.5076450   2.0224880  46.7709950  26.7792550   2.8531760
  45.3470720  30.3798380   6.9311580  45.9912940  30.5857760   7.6085000
  45.7100160  29.6186780   6.4782430  46.6202800  28.3830730   5.6489030
  47.2625030  27.6823890   5.7621200  47.1452150  29.1629170   5.4685920
  48.3940420  29.1825630   8.8525090  48.7296660  29.7692320   9.5303010
  47.4740760  29.0518340   9.0822880  35.9443820  16.9720810   9.6348500
  35.2302340  17.1717730  10.2401110  36.3638860  16.1960380  10.0063300
  36.2316410  30.9601070  10.6215030  36.3407530  30.0195810  10.4810420
  35.5796970  31.2255820   9.9728760  44.2229000  29.2316960  12.0213150
  43.9025870  28.5126200  12.5658840  43.5487360  29.9072030  12.0949210
  47.4382600  19.4643120   7.3849950  47.8063420  18.6438330   7.7129520
  46.5780800  19.5245010   7.8005600  44.3984590  22.1182710   7.6087920
  44.8969840  22.5928530   8.2739770  44.5407540  21.1946230   7.8157950
  51.6051450  18.3350670   8.4516310  51.1025050  19.0756070   8.7910120
  52.4208110  18.7234670   8.1353100  49.8973460  23.5783850   1.8977670
  48.9563600  23.5934080   2.0725360  50.2117530  22.7919810   2.3437970
  51.8999040  30.7492700   3.5731930  52.0246460  31.5723870   4.0455740
  52.7664600  30.5383430   3.2256080  39.3716570  32.8423910   3.2449060
  40.1079050  32.2939370   3.5157630  39.7557490  33.7079920   3.1055050
  47.2139480  28.1349850  12.3810050  46.6077640  28.1581450  11.6405800
  46.9093590  27.4032890  12.9177300  48.6439850  31.8630140  10.9919460
  49.5961600  31.7788160  10.9419700  48.4968070  32.5271850  11.6653250
  43.1510600  25.9214430  10.9106210  42.3856270  26.4899430  10.8260880
  43.3326560  25.6290640  10.0174440  50.2933950  27.6519760  11.4681230
  51.0343420  27.9895520  10.9648690  49.5306630  27.8211820  10.9151000
  38.1295740  22.6573030  12.2720760  38.1701080  22.3586900  13.1805990
  38.9841240  23.0580640  12.1128280  40.0701550  21.2365130  10.2395250
  39.5398010  20.7456080   9.6118590  40.7389620  21.6649330   9.7053180
  48.9679610  25.7034590  10.0036440  49.3820630  25.8579670  10.8526860
  48.0330610  25.8289810  10.1662220  49.4401780  23.0430750  12.0075590
  50.0222550  22.2883070  11.9196070  49.6163550  23.5738190  11.2307070
  40.5573850  18.2027500  10.3192540  40.4630720  17.5848250   9.5943410
  39.9771240  18.9293790  10.0922450  43.3235290  16.7600740   7.3519930
  42.8752590  16.7825000   6.5065480  42.6900490  16.3619760   7.9490230
  43.7294840  25.6555070   7.9732370  44.1482950  26.4987800   7.8008610
  42.8103470  25.7927110   7.7439150  46.0658740  23.3871250   9.3570210
  46.1854950  22.7912390  10.0965050  46.9252740  23.4240940   8.9371510
  48.4046640  23.9408440   7.9332720  47.8781860  24.4651060   7.3297860
  48.7477980  24.5735830   8.5642450  41.5802260  31.9608080   9.0890100
  41.0423350  32.6854140   8.7698800  41.8336220  31.4838420   8.2987440
  42.8327510  19.9292600  10.6146030  43.4227200  19.6208450  11.3023850
  42.0147750  19.4572350  10.7705930  47.6520940  19.5458410  10.8479050
  46.9636460  18.8839950  10.7829040  48.3726960  19.0996680  11.2927510
  44.4364470  33.1959290   9.3476750  44.3623170  34.0994430   9.6549120
  43.5343310  32.8771190   9.3198820  35.8391760  30.5233880   2.6510370
  36.1694770  29.6554940   2.4189010  36.2682760  30.7292400   3.4815330
  36.3281970  31.3904470   5.3892000  35.8912960  31.5705270   6.2216150
  36.8959650  32.1479090   5.2473720  51.9644150  30.8921470   9.6769310
  51.3646140  30.9514030   8.9333230  52.0938050  29.9526450   9.8066160
  53.6662030  26.2336870   2.3615150  54.0370860  25.4504190   1.9551120
  54.3063960  26.9225970   2.1832450  50.6495790  27.6173450   7.7745470
  49.8355630  28.0470610   8.0371260  51.0569990  28.2291860   7.1614520
  37.1982330  24.2877270   6.2884220  37.5655370  24.2004670   7.1680240
  36.6293150  23.5243820   6.1891080  51.9986190  22.7561650   9.3014690
  51.7672280  22.5274400   8.4012640  52.2590740  23.6761200   9.2559580
  36.7498330  21.1986360  10.1942640  35.8554380  21.1653120  10.5336350
  37.2895880  21.3973150  10.9593890  50.4374260  17.9818080  12.0794390
  51.3144440  17.9901480  12.4628390  50.4495100  17.2448920  11.4686740
  51.8837530  21.8347620   2.9682410  52.4075010  21.3410270   2.3372580
  52.4696950  21.9697980   3.7129980  52.0627250  21.9187490   6.4901960
  51.1129960  21.8851030   6.6046950  52.2440260  22.8287600   6.2551730
  37.2538040  15.4734690   4.5425860  37.9014230  14.9232070   4.1021020
  37.6739880  15.7277840   5.3641670  51.1490380  15.6676050   7.8995500
  51.7862600  16.2810190   8.2654690  51.2965270  15.7036710   6.9544730
  37.0070040  15.6290360   7.2851180  36.6584860  16.0854180   8.0509360
  36.6757740  14.7347490   7.3673610  42.3140440  30.3569550   7.0514090
  42.0731800  30.6244110   6.1644610  43.2543080  30.5275280   7.1064950
  44.5194860  16.8202240  10.8070600  44.4583750  17.4124070  11.5566010
  45.4595240  16.7128200  10.6620860  47.1569420  16.4772300  10.4462890
  47.7709830  16.7951590   9.7843970  47.7018980  15.9920890  11.0658750
  53.5744600  32.3763930   7.8524730  53.0802880  32.7732800   7.1351860
  52.9657890  31.7513140   8.2462010  37.6790680  15.1566560  10.5601950
  38.2273670  14.9754610   9.7968060  37.7445990  14.3660670  11.0958260
  38.4522440  31.7472210   8.5702150  37.8582760  31.6156910   9.3092190
  38.4446280  30.9110350   8.1044250  47.8977460  15.0404440   6.7732180
  47.0237300  15.3739550   6.5705110  47.7888210  14.5677620   7.5984050
  48.8049440  17.2475310   8.1573900  48.4762800  16.4327070   7.7775630
  49.7531740  17.2045120   8.0339590  51.2584050  33.0187350   5.1311470
  50.7987020  33.7703160   4.7569490  50.6296510  32.2993820   5.0726270
  38.0834670  29.1130590   7.5210190  37.3568730  28.4935880   7.4536140
  38.1443820  29.5071200   6.6508270  41.6879770  31.3275590   4.3059600
  42.2044790  30.7162950   3.7807860  42.3377150  31.8304370   4.7970610
  44.4275270  32.2184080   5.1328580  44.7153080  31.9638380   4.2561590
  44.9398490  31.6661440   5.7234150  45.6452280  15.9574280   5.7125090
  44.8624070  16.4319780   5.9921850  45.3515210  15.0529110   5.6038270
  50.1973350  16.6597380   3.7574180  50.6381440  16.6042480   2.9095780
  49.9280940  17.5755390   3.8284360  52.0611920  16.2912620   1.7683000
  52.0000320  15.3473840   1.6214020  52.8403950  16.3992710   2.3136460
  48.0331480  15.0403480   2.4624190  48.6360850  15.6123690   2.9372710
  47.2924470  15.6042920   2.2398090  44.4947630  33.1400180  12.4996780
  45.4214940  32.9044450  12.5432740  44.4798060  33.9672180  12.0182810
  41.6811240  15.8044930  12.2638660  41.3995510  16.3078530  11.4999480
  42.0630940  15.0066680  11.8980790  48.2826700  15.2198510  12.8419130
  48.1692150  15.5393120  13.7370650  49.0996440  15.6211020  12.5456410
  51.0625190  32.3670040  12.3237820  51.8550510  31.8719270  12.1163780
  51.3558340  33.0460180  12.9313430  47.1884850   4.4647490  58.3027830
  47.1078900   3.5502100  58.0319540  46.7749270   4.9614560  57.5967540
  45.3202890   6.2426510  60.1837100  44.5444990   5.7626950  60.4735670
  45.9715820   5.5632160  60.0093260  39.3368720   6.5546320  61.0612860
  38.5053600   6.2995030  61.4609370  39.9449700   6.6257090  61.7970780
  49.3410320  10.6486700  58.9636230  48.8791850   9.8773940  59.2923400
  50.1535870  10.6752770  59.4688680  39.3169980  10.5886410  61.2570880
  39.6198020   9.6984150  61.0781100  40.0613570  11.1456630  61.0293130
  35.7093680   4.1153860  60.7294950  36.2809790   3.3476060  60.7298590
  35.7095220   4.4142620  59.8201560  45.5673630  12.9344710  58.5840220
  44.9485070  13.3902210  58.0134660  46.4225410  13.0896170  58.1829920
  44.7611880   8.9183700  60.1907260  44.6920160   7.9773640  60.0296390
  45.5231740   9.0085110  60.7629830  41.7629790   3.0666080  60.2118810
  42.2708010   3.5647050  60.8523830  42.2943030   2.2901280  60.0358170
  46.4336980   7.8183950  55.9772130  45.8154250   8.2833400  55.4134850
  46.9460230   8.5111430  56.3941640  35.8020180   8.5040480  53.3511760
  35.4248160   8.9927580  52.6196660  36.0593250   9.1765760  53.9818290
  48.9624170  12.6224160  61.1004730  48.9751330  12.2186450  60.2326990
  48.4099390  13.3971450  60.9966160  50.2569590   9.3440380  56.1894900
  50.1465920   8.4014710  56.3144320  50.2537840   9.7056020  57.0757660
  45.7989870   4.9705700  55.5457390  44.8719150   4.9043080  55.7745860
  45.9514690   5.9085830  55.4312630  49.8287160   6.5326000  56.0492640
  49.2099580   6.1945550  55.4018940  49.8111610   5.8885760  56.7571830
  41.4046510   5.4970440  58.3277120  41.0003510   4.7847690  57.8323020
  41.4909630   5.1523680  59.2165160  41.8728210   9.1838000  60.4916330
  41.5756500   8.5783470  59.8124110  42.8228030   9.2215310  60.3805690
  48.0051860   5.7712810  53.0565390  48.4445140   4.9335240  52.9103210
  48.7180280   6.4042210  53.1429530  46.1147240  10.7108880  57.0246630
  46.5543150  11.4533210  56.6102020  46.0534130  10.9535450  57.9485590
  38.1051140   4.3915420  55.8283770  37.9848740   5.1177510  55.2165040
  37.7952030   3.6218330  55.3511680  35.7436510   7.5630560  61.6352410
  35.8216930   7.6979330  60.6908130  36.3578190   6.8546450  61.8280530
  36.9884140   9.2630750  58.0458590  36.5812220   9.4045340  57.1912190
  37.8797150   8.9790910  57.8429800  48.7817420  13.6978000  54.3809640
  48.6218560  13.4080940  55.2791470  48.6164130  12.9218130  53.8454870
  41.2605800  13.4776530  56.1581260  41.0848280  12.5612070  55.9449060
  40.4061540  13.8363820  56.3979060  48.4843550  11.2065560  52.9407640
  47.7908710  11.2042850  52.2809920  49.2266410  10.7824880  52.5101810
  48.0493480  12.8328270  57.0156130  48.5050430  12.0517650  57.3294750
  48.3886000  13.5435090  57.5597310  40.3629020   2.8584060  56.9388690
  40.1369940   2.6421230  57.8435310  39.5821550   3.2912520  56.5934660
  47.5926780   2.8647430  55.5379340  46.9935670   3.5883230  55.3542960
  48.1406390   2.8024210  54.7555790  35.4226050   2.0331890  51.0015540
  35.3400720   2.9762650  51.1430530  35.0709110   1.8906800  50.1227890
  43.2844330   1.7683000  53.0592650  43.4057150   1.7269480  54.0078470
  42.8992840   2.6307150  52.9039380  42.2965830   4.0784140  52.4575950
  41.7282730   3.6302390  51.8311860  43.0054830   4.4376920  51.9241100
  39.8413310   8.0742330  54.7302360  39.0675570   7.5339950  54.5701080
  40.5707940   7.5548940  54.3920120  50.6001290   7.0707690  60.5228750
  51.3200410   7.5662980  60.1324860  50.3983110   6.3925580  59.8782620
  48.7759620   2.8365300  52.9620300  49.6639240   3.1482530  52.7871640
  48.7464710   1.9637550  52.5700880  39.8850710   7.7422710  58.3681170
  40.4029380   6.9390970  58.3138060  39.4334730   7.6801850  59.2098000
  44.7720210   9.0088990  53.6408470  45.1135910   9.7531220  53.1451790
  43.9432920   9.3220110  54.0033300  51.0473890   4.1477140  52.4300160
  50.9637610   4.5791360  51.5796600  51.7668080   4.6075490  52.8626980
  52.0761140  11.0019400  55.1582290  51.4337300  10.3475020  55.4326010
  51.6891800  11.4074490  54.3822960  47.6547620   8.3304830  59.0053980
  48.0071440   7.7332960  58.3455350  46.7709950   8.0049060  59.1762230
  43.7410900   9.0902520  56.4124390  44.4282030   9.6371730  56.7931980
  42.9543320   9.6343250  56.4474000  35.8803300   4.7075340  51.9041470
  36.7498150   4.9900140  52.1877390  35.3893620   5.5211210  51.7890280
  43.0438110   6.0948550  56.0249750  43.5000890   6.9053800  56.2509940
  42.6926320   5.7771690  56.8568240  50.4658520   9.8935860  51.6958640
  50.2396100   9.1766300  52.2883280  50.0754720   9.6448300  50.8580390
  36.2474550  13.9202720  52.4703100  36.6072190  14.5192060  51.8160370
  36.1066890  14.4662610  53.2438130  50.0474770   7.8107800  53.3572800
  49.7596470   8.2720490  54.1450680  50.8426940   7.3505570  53.6257020
  42.2643170  11.3033920  53.2876770  42.2553270  12.0363610  52.6721280
  41.3441530  11.0565500  53.3803730  37.8649810   6.5248810  54.0323530
  37.2577760   7.2647710  54.0418830  38.3399160   6.6148170  53.2061730
  45.2502770  11.3662160  51.9501960  45.3514750  11.1626150  51.0203940
  44.3504510  11.1120440  52.1549740  43.8920880  13.8848480  56.6449630
  44.1462380  13.8469870  55.7229000  42.9433360  13.7581810  56.6377880
  49.8973460   4.8040360  58.2208140  48.9563600   4.8190590  58.3955830
  50.2117530   4.0176320  58.6668440  39.8755100   6.4859960  51.7812100
  40.6418370   6.3741320  52.3437530  39.9529790   5.7897930  51.1288870
  38.5701860   3.9185030  52.4644990  38.6505450   2.9712540  52.5762390
  39.4621610   4.2491910  52.5705650  51.8999040  11.9749210  59.8962400
  52.0246460  12.7980380  60.3686210  52.7664600  11.7639940  59.5486550
  39.3716570  14.0680420  59.5679530  40.1079050  13.5195880  59.8388100
  39.7557490  14.9336430  59.4285520  36.2562050  10.1353990  55.4421040
  35.3301830  10.3775130  55.4326450  36.7218480  10.9628250  55.3205790
  42.4818880  13.2410730  51.3905100  43.2747490  13.5299560  50.9386890
  41.9623230  12.8102900  50.7117580  51.5349050  12.4680860  52.8141840
  51.2490560  12.0546000  51.9996020  51.3368600  13.3968570  52.6942360
  42.9996280   8.4614140  51.2547450  42.8946920   7.8466490  51.9808830
  42.8320500   7.9380030  50.4710460  46.2399010   7.5234170  51.8589440
  45.6909110   7.9703470  52.5032180  46.8618270   7.0183420  52.3827110
  41.9074130   6.4825090  53.7554740  42.3290550   6.3164960  54.5986130
  42.0324970   5.6725320  53.2609880  44.4201770   5.5062700  51.0031840
  44.9407430   4.7911720  50.6372990  45.0670170   6.1448570  51.3032350
  40.8033030   2.5558320  50.7012900  40.6022090   1.6925680  51.0626240
  40.6325080   2.4691680  49.7634500  44.9849800  13.5874310  53.2933580
  45.8800590  13.9259280  53.3152340  45.0167430  12.8653720  52.6657860
  38.6245960   8.9601360  51.5220580  39.0620830   9.5031030  52.1778160
  39.1093690   8.1348310  51.5316920  35.8391760  11.7490390  58.9740840
  36.1694770  10.8811450  58.7419480  36.2682760  11.9548910  59.8045800
  40.4353680  10.0799400  56.6342810  40.1349220   9.9564370  57.5346720
  40.3291170   9.2207990  56.2258540  53.2045600   9.8595800  51.3369490
  52.3738560   9.9272450  51.8076720  53.3817430  10.7499920  51.0336350
  52.6602060   6.6043280  53.8403690  53.4220970   7.1739930  53.9463380
  52.6756430   6.0370480  54.6112000  36.1606400   5.1281210  58.0711350
  35.5055240   4.8592850  57.4271050  36.9984350   5.0185690  57.6213330
  53.6662030   7.4593380  58.6845620  54.0370860   6.6760700  58.2781590
  54.3063960   8.1482480  58.5062920  52.7121230   6.8977650  50.9976210
  52.9870070   7.8056530  50.8695430  52.5231970   6.8340180  51.9338200
  52.6086570   4.8346640  55.9905640  52.2330170   4.0674570  55.5586930
  51.8789690   5.2169340  56.4780570  35.3744480   2.3380140  54.0136680
  34.4708560   2.6010340  53.8388340  35.8585100   2.6091310  53.2336640
  51.8837530   3.0604130  59.2912880  52.4075010   2.5666780  58.6603050
  52.4696950   3.1954490  60.0360450  50.7071840  13.5948560  57.6244210
  51.3030910  13.2733130  56.9478630  50.9649990  13.1220380  58.4157480
  51.2584050  14.2443860  61.4541940  50.7987020  14.9959670  61.0799960
  50.6296510  13.5250330  61.3956740  41.6879770  12.5532100  60.6290070
  42.2044790  11.9419460  60.1038330  42.3377150  13.0560880  61.1201080
  36.3664670  13.6561490  57.0537420  36.1986710  13.0232170  57.7519310
  35.4999180  13.8620890  56.7031610  37.9727370  12.3494720  54.4987560
  37.4474990  12.7302750  53.7949520  37.8971950  12.9745490  55.2197270
  52.7292690  13.9082260  55.8201500  52.9044880  13.2220000  55.1762420
  52.0314260  14.4329310  55.4278170  40.5720340  14.2977100  53.3736810
  41.3039160  14.0136380  52.8260700  40.8314010  14.0590380  54.2636190
  39.7335130  10.4141830  53.3783140  39.1044010  10.8826930  53.9268970
  39.8482960   9.5691050  53.8129330  47.1884850   4.4647490  39.5284340
  47.1078900   3.5502100  39.2576050  46.7749270   4.9614560  38.8224050
  45.3202890   6.2426510  41.4093610  44.5444990   5.7626950  41.6992180
  45.9715820   5.5632160  41.2349770  39.3368720   6.5546320  42.2869370
  38.5053600   6.2995030  42.6865880  39.9449700   6.6257090  43.0227290
  49.3410320  10.6486700  40.1892740  48.8791850   9.8773940  40.5179910
  50.1535870  10.6752770  40.6945190  39.3169980  10.5886410  42.4827390
  39.6198020   9.6984150  42.3037610  40.0613570  11.1456630  42.2549640
  35.7093680   4.1153860  41.9551460  36.2809790   3.3476060  41.9555100
  35.7095220   4.4142620  41.0458070  45.5673630  12.9344710  39.8096730
  44.9485070  13.3902210  39.2391170  46.4225410  13.0896170  39.4086430
  44.7611880   8.9183700  41.4163770  44.6920160   7.9773640  41.2552900
  45.5231740   9.0085110  41.9886340  41.7629790   3.0666080  41.4375320
  42.2708010   3.5647050  42.0780340  42.2943030   2.2901280  41.2614680
  46.4336980   7.8183950  37.2028640  45.8154250   8.2833400  36.6391360
  46.9460230   8.5111430  37.6198150  41.2968740   7.3459820  43.8812240
  40.9638120   7.9728740  44.5233310  41.4735420   7.8721700  43.1013910
  40.5087840   9.3140620  45.6961420  41.1261840   9.9891700  45.4145870
  39.6480960   9.7228600  45.6048920  35.8020180   8.5040480  34.5768270
  35.4248160   8.9927580  33.8453170  36.0593250   9.1765760  35.2074800
  51.4265430  10.7780030  43.6116060  50.7428950  11.4479140  43.6032730
  51.9659720  10.9760680  42.8460920  48.9624170  12.6224160  42.3261240
  48.9751330  12.2186450  41.4583500  48.4099390  13.3971450  42.2222670
  50.2569590   9.3440380  37.4151410  50.1465920   8.4014710  37.5400830
  50.2537840   9.7056020  38.3014170  48.3609610   7.5254000  43.6543850
  48.7778400   7.3114110  42.8197310  49.0849430   7.7826790  44.2252470
  45.7989870   4.9705700  36.7713900  44.8719150   4.9043080  37.0002370
  45.9514690   5.9085830  36.6569140  52.3071710   5.9241220  43.7460090
  51.4790340   5.9934310  43.2710220  52.9022190   6.5095530  43.2775920
  49.8287160   6.5326000  37.2749150  49.2099580   6.1945550  36.6275450
  49.8111610   5.8885760  37.9828340  49.2713720   2.7110540  44.6914960
  48.8584900   3.5364250  44.9454950  48.5389670   2.1255580  44.4991320
  41.4046510   5.4970440  39.5533630  41.0003510   4.7847690  39.0579530
  41.4909630   5.1523680  40.4421670  41.8728210   9.1838000  41.7172840
  41.5756500   8.5783470  41.0380620  42.8228030   9.2215310  41.6062200
  40.1175130   2.2713650  43.3332670  40.6689720   2.3808990  42.5585920
  40.6318640   2.6451250  44.0487900  49.9613820  12.7569870  45.3795940
  49.4844380  13.5642060  45.1868550  49.2775610  12.1048200  45.5322150
  40.9646640   8.9219690  48.3680640  40.0675170   9.1459660  48.6154040
  40.9899510   9.0454630  47.4192040  48.0051860   5.7712810  34.2821900
  48.4445140   4.9335240  34.1359720  48.7180280   6.4042210  34.3686040
  39.7917860   5.7933010  46.9438010  39.6525630   6.6655810  47.3125410
  38.9099220   5.4505820  46.7985950  46.1147240  10.7108880  38.2503140
  46.5543150  11.4533210  37.8358530  46.0534130  10.9535450  39.1742100
  41.5898210  11.7354710  49.1523160  41.5613640  12.1397660  48.2851590
  41.4263180  10.8065070  48.9894760  38.1051140   4.3915420  37.0540280
  37.9848740   5.1177510  36.4421550  37.7952030   3.6218330  36.5768190
  53.5413030  12.5181810  50.4487330  54.0172750  12.9964700  51.1276410
  54.1620190  12.4499300  49.7232830  35.7436510   7.5630560  42.8608920
  35.8216930   7.6979330  41.9164640  36.3578190   6.8546450  43.0537040
  36.9884140   9.2630750  39.2715100  36.5812220   9.4045340  38.4168700
  37.8797150   8.9790910  39.0686310  52.9446280   9.7094660  47.6087340
  53.0709340   9.4706540  46.6904520  52.9867660   8.8779200  48.0809420
  46.8063020  13.4122660  46.1782150  47.3207690  13.3230670  46.9804580
  45.9632100  13.7582360  46.4710060  41.2605800  13.4776530  37.3837770
  41.0848280  12.5612070  37.1705570  40.4061540  13.8363820  37.6235570
  48.4843550  11.2065560  34.1664150  47.7908710  11.2042850  33.5066430
  49.2266410  10.7824880  33.7358320  48.0493480  12.8328270  38.2412640
  48.5050430  12.0517650  38.5551260  48.3886000  13.5435090  38.7853820
  35.7996030   8.6044730  45.4003380  35.9627070   8.1350090  44.5822750
  36.2648480   8.0968290  46.0652220  46.9538830   3.3229710  49.2694720
  47.2792240   2.4893460  48.9296950  47.7419160   3.8458230  49.4173050
  40.3629020   2.8584060  38.1645200  40.1369940   2.6421230  39.0691820
  39.5821550   3.2912520  37.8191170  47.5926780   2.8647430  36.7635850
  46.9935670   3.5883230  36.5799470  48.1406390   2.8024210  35.9812300
  42.8028230   3.7569640  48.8305470  42.7071830   2.8164370  48.6805870
  43.6460210   3.9784710  48.4353540  35.4226050   2.0331890  32.2272050
  35.3400720   2.9762650  32.3687040  35.0709110   1.8906800  31.3484400
  46.7846790   4.0916720  42.8889910  46.0527910   4.6003530  43.2380010
  46.3871130   3.2746700  42.5878690  43.2844330   1.7683000  34.2849160
  43.4057150   1.7269480  35.2334980  42.8992840   2.6307150  34.1295890
  42.2965830   4.0784140  33.6832460  41.7282730   3.6302390  33.0568370
  43.0054830   4.4376920  33.1497610  37.3735010   7.9796160  47.5599190
  36.9889800   7.3389830  48.1582150  37.6847200   8.6832280  48.1293920
  43.5232150   4.8272700  43.0407810  43.8902280   4.3531270  43.7869150
  43.3337210   5.7014270  43.3816150  41.3131520   3.8681340  45.3592020
  41.0088590   4.7473320  45.5842380  42.2677980   3.9281130  45.3949460
  39.8413310   8.0742330  35.9558870  39.0675570   7.5339950  35.7957590
  40.5707940   7.5548940  35.6176630  50.6001290   7.0707690  41.7485260
  51.3200410   7.5662980  41.3581370  50.3983110   6.3925580  41.1039130
  45.9820090   7.1416750  47.6354260  45.9157400   6.2212420  47.3811850
  45.3525230   7.2392190  48.3498900  48.7759620   2.8365300  34.1876810
  49.6639240   3.1482530  34.0128150  48.7464710   1.9637550  33.7957390
  39.8850710   7.7422710  39.5937680  40.4029380   6.9390970  39.5394570
  39.4334730   7.6801850  40.4354510  44.7720210   9.0088990  34.8664980
  45.1135910   9.7531220  34.3708300  43.9432920   9.3220110  35.2289810
  37.3695250   4.7084080  46.5063380  37.0110190   5.3737930  47.0936720
  37.0749810   3.8767630  46.8776000  40.5708370   5.1668320  49.3902930
  40.2708510   5.3125500  48.4930750  41.3419610   4.6073610  49.2976320
  45.9136820   9.9637320  47.3858060  45.9281360   9.0318280  47.1676970
  45.2061920  10.0497080  48.0247830  51.0473890   4.1477140  33.6556670
  50.9637610   4.5791360  32.8053110  51.7668080   4.6075490  34.0883490
  52.1248030   6.6044660  46.7326640  51.3996220   7.1973440  46.5356030
  52.6523490   6.5968200  45.9340010  52.0761140  11.0019400  36.3838800
  51.4337300  10.3475020  36.6582520  51.6891800  11.4074490  35.6079470
  47.6547620   8.3304830  40.2310490  48.0071440   7.7332960  39.5711860
  46.7709950   8.0049060  40.4018740  43.7410900   9.0902520  37.6380900
  44.4282030   9.6371730  38.0188490  42.9543320   9.6343250  37.6730510
  35.8803300   4.7075340  33.1297980  36.7498150   4.9900140  33.4133900
  35.3893620   5.5211210  33.0146790  43.0438110   6.0948550  37.2506260
  43.5000890   6.9053800  37.4766450  42.6926320   5.7771690  38.0824750
  45.3470720  11.6054890  44.4798560  45.9912940  11.8114270  45.1571980
  45.7100160  10.8443290  44.0269410  46.6202800   9.6087240  43.1976010
  47.2625030   8.9080400  43.3108180  47.1452150  10.3885680  43.0172900
  50.4658520   9.8935860  32.9215150  50.2396100   9.1766300  33.5139790
  50.0754720   9.6448300  32.0836900  48.3940420  10.4082140  46.4012070
  48.7296660  10.9948830  47.0789990  47.4740760  10.2774850  46.6309860
  50.0474770   7.8107800  34.5829310  49.7596470   8.2720490  35.3707190
  50.8426940   7.3505570  34.8513530  36.2316410  12.1857580  48.1702010
  36.3407530  11.2452320  48.0297400  35.5796970  12.4512330  47.5215740
  44.2229000  10.4573470  49.5700130  43.9025870   9.7382710  50.1145820
  43.5487360  11.1328540  49.6436190  42.2643170  11.3033920  34.5133280
  42.2553270  12.0363610  33.8977790  41.3441530  11.0565500  34.6060240
  37.8649810   6.5248810  35.2580040  37.2577760   7.2647710  35.2675340
  38.3399160   6.6148170  34.4318240  44.3984590   3.3439220  45.1574900
  44.8969840   3.8185040  45.8226750  44.5407540   2.4202740  45.3644930
  49.8973460   4.8040360  39.4464650  48.9563600   4.8190590  39.6212340
  50.2117530   4.0176320  39.8924950  39.8755100   6.4859960  33.0068610
  40.6418370   6.3741320  33.5694040  39.9529790   5.7897930  32.3545380
  38.5701860   3.9185030  33.6901500  38.6505450   2.9712540  33.8018900
  39.4621610   4.2491910  33.7962160  51.8999040  11.9749210  41.1218910
  52.0246460  12.7980380  41.5942720  52.7664600  11.7639940  40.7743060
  39.3716570  14.0680420  40.7936040  40.1079050  13.5195880  41.0644610
  39.7557490  14.9336430  40.6542030  36.2562050  10.1353990  36.6677550
  35.3301830  10.3775130  36.6582960  36.7218480  10.9628250  36.5462300
  38.3774850  13.2526490  49.9821620  39.1787580  13.5738540  50.3957020
  37.8626670  12.8922070  50.7041530  47.2139480   9.3606360  49.9297030
  46.6077640   9.3837960  49.1892780  46.9093590   8.6289400  50.4664280
  48.6439850  13.0886650  48.5406440  49.5961600  13.0044670  48.4906680
  48.4968070  13.7528360  49.2140230  51.5349050  12.4680860  34.0398350
  51.2490560  12.0546000  33.2252530  51.3368600  13.3968570  33.9198870
  36.0972660   5.7399950  48.9257670  36.6011680   5.1607230  49.4973900
  35.3580080   6.0240180  49.4634040  42.9996280   8.4614140  32.4803960
  42.8946920   7.8466490  33.2065340  42.8320500   7.9380030  31.6966970
  43.1510600   7.1470940  48.4593190  42.3856270   7.7155940  48.3747860
  43.3326560   6.8547150  47.5661420  46.2399010   7.5234170  33.0845950
  45.6909110   7.9703470  33.7288690  46.8618270   7.0183420  33.6083620
  50.2933950   8.8776270  49.0168210  51.0343420   9.2152030  48.5135670
  49.5306630   9.0468330  48.4637980  38.1295740   3.8829540  49.8207740
  38.1701080   3.5843410  50.7292970  38.9841240   4.2837150  49.6615260
  41.9074130   6.4825090  34.9811250  42.3290550   6.3164960  35.8242640
  42.0324970   5.6725320  34.4866390  40.0701550   2.4621640  47.7882230
  39.5398010   1.9712590  47.1605570  40.7389620   2.8905840  47.2540160
  44.4201770   5.5062700  32.2288350  44.9407430   4.7911720  31.8629500
  45.0670170   6.1448570  32.5288860  48.9679610   6.9291100  47.5523420
  49.3820630   7.0836180  48.4013840  48.0330610   7.0546320  47.7149200
  49.4401780   4.2687260  49.5562570  50.0222550   3.5139580  49.4683050
  49.6163550   4.7994700  48.7794050  43.7294840   6.8811580  45.5219350
  44.1482950   7.7244310  45.3495590  42.8103470   7.0183620  45.2926130
  46.0658740   4.6127760  46.9057190  46.1854950   4.0168900  47.6452030
  46.9252740   4.6497450  46.4858490  48.4046640   5.1664950  45.4819700
  47.8781860   5.6907570  44.8784840  48.7477980   5.7992340  46.1129430
  40.8033030   2.5558320  31.9269410  40.6022090   1.6925680  32.2882750
  40.6325080   2.4691680  30.9891010  41.5802260  13.1864590  46.6377080
  41.0423350  13.9110650  46.3185780  41.8336220  12.7094930  45.8474420
  44.4364470  14.4215800  46.8963730  44.3623170  15.3250940  47.2036100
  43.5343310  14.1027700  46.8685800  38.6245960   8.9601360  32.7477090
  39.0620830   9.5031030  33.4034670  39.1093690   8.1348310  32.7573430
  35.8391760  11.7490390  40.1997350  36.1694770  10.8811450  39.9675990
  36.2682760  11.9548910  41.0302310  40.4353680  10.0799400  37.8599320
  40.1349220   9.9564370  38.7603230  40.3291170   9.2207990  37.4515050
  36.3281970  12.6160980  42.9378980  35.8912960  12.7961780  43.7703130
  36.8959650  13.3735600  42.7960700  51.9644150  12.1177980  47.2256290
  51.3646140  12.1770540  46.4820210  52.0938050  11.1782960  47.3553140
  53.2045600   9.8595800  32.5626000  52.3738560   9.9272450  33.0333230
  53.3817430  10.7499920  32.2592860  52.6602060   6.6043280  35.0660200
  53.4220970   7.1739930  35.1719890  52.6756430   6.0370480  35.8368510
  36.1606400   5.1281210  39.2967860  35.5055240   4.8592850  38.6527560
  36.9984350   5.0185690  38.8469840  53.6662030   7.4593380  39.9102130
  54.0370860   6.6760700  39.5038100  54.3063960   8.1482480  39.7319430
  50.6495790   8.8429960  45.3232450  49.8355630   9.2727120  45.5858240
  51.0569990   9.4548370  44.7101500  52.7121230   6.8977650  32.2232720
  52.9870070   7.8056530  32.0951940  52.5231970   6.8340180  33.1594710
  52.6086570   4.8346640  37.2162150  52.2330170   4.0674570  36.7843440
  51.8789690   5.2169340  37.7037080  37.1982330   5.5133780  43.8371200
  37.5655370   5.4261180  44.7167220  36.6293150   4.7500330  43.7378060
  51.9986190   3.9818160  46.8501670  51.7672280   3.7530910  45.9499620
  52.2590740   4.9017710  46.8046560  36.7498330   2.4242870  47.7429620
  35.8554380   2.3909630  48.0823330  37.2895880   2.6229660  48.5080870
  35.3744480   2.3380140  35.2393190  34.4708560   2.6010340  35.0644850
  35.8585100   2.6091310  34.4593150  51.8837530   3.0604130  40.5169390
  52.4075010   2.5666780  39.8859560  52.4696950   3.1954490  41.2616960
  52.0627250   3.1444000  44.0388940  51.1129960   3.1107540  44.1533930
  52.2440260   4.0544110  43.8038710  50.7071840  13.5948560  38.8500720
  51.3030910  13.2733130  38.1735140  50.9649990  13.1220380  39.6413990
  38.6134410  10.0266470  48.9991350  38.5704040   9.6559380  49.8805810
  38.7445420  10.9644040  49.1393170  42.3140440  11.5826060  44.6001070
  42.0731800  11.8500620  43.7131590  43.2543080  11.7531790  44.6551930
  53.5744600  13.6020440  45.4011710  53.0802880  13.9989310  44.6838840
  52.9657890  12.9769650  45.7948990  38.4522440  12.9728720  46.1189130
  37.8582760  12.8413420  46.8579170  38.4446280  12.1366860  45.6531230
  51.2584050  14.2443860  42.6798450  50.7987020  14.9959670  42.3056470
  50.6296510  13.5250330  42.6213250  38.0834670  10.3387100  45.0697170
  37.3568730   9.7192390  45.0023120  38.1443820  10.7327710  44.1995250
  41.6879770  12.5532100  41.8546580  42.2044790  11.9419460  41.3294840
  42.3377150  13.0560880  42.3457590  44.4275270  13.4440590  42.6815560
  44.7153080  13.1894890  41.8048570  44.9398490  12.8917950  43.2721130
  36.3664670  13.6561490  38.2793930  36.1986710  13.0232170  38.9775820
  35.4999180  13.8620890  37.9288120  37.9727370  12.3494720  35.7244070
  37.4474990  12.7302750  35.0206030  37.8971950  12.9745490  36.4453780
  44.4947630  14.3656690  50.0483760  45.4214940  14.1300960  50.0919720
  44.4798060  15.1928690  49.5669790  52.7292690  13.9082260  37.0458010
  52.9044880  13.2220000  36.4018930  52.0314260  14.4329310  36.6534680
  40.5720340  14.2977100  34.5993320  41.3039160  14.0136380  34.0517210
  40.8314010  14.0590380  35.4892700  39.7335130  10.4141830  34.6039650
  39.1044010  10.8826930  35.1525480  39.8482960   9.5691050  35.0385840
  51.0625190  13.5926550  49.8724800  51.8550510  13.0975780  49.6650760
  51.3558340  14.2716690  50.4800410  47.1884850   4.4647490  20.7540850
  47.1078900   3.5502100  20.4832560  46.7749270   4.9614560  20.0480560
  45.3202890   6.2426510  22.6350120  44.5444990   5.7626950  22.9248690
  45.9715820   5.5632160  22.4606280  39.3368720   6.5546320  23.5125880
  38.5053600   6.2995030  23.9122390  39.9449700   6.6257090  24.2483800
  49.3410320  10.6486700  21.4149250  48.8791850   9.8773940  21.7436420
  50.1535870  10.6752770  21.9201700  39.3169980  10.5886410  23.7083900
  39.6198020   9.6984150  23.5294120  40.0613570  11.1456630  23.4806150
  35.7093680   4.1153860  23.1807970  36.2809790   3.3476060  23.1811610
  35.7095220   4.4142620  22.2714580  45.5673630  12.9344710  21.0353240
  44.9485070  13.3902210  20.4647680  46.4225410  13.0896170  20.6342940
  44.7611880   8.9183700  22.6420280  44.6920160   7.9773640  22.4809410
  45.5231740   9.0085110  23.2142850  41.7629790   3.0666080  22.6631830
  42.2708010   3.5647050  23.3036850  42.2943030   2.2901280  22.4871190
  46.4336980   7.8183950  18.4285150  45.8154250   8.2833400  17.8647870
  46.9460230   8.5111430  18.8454660  41.2968740   7.3459820  25.1068750
  40.9638120   7.9728740  25.7489820  41.4735420   7.8721700  24.3270420
  40.5087840   9.3140620  26.9217930  41.1261840   9.9891700  26.6402380
  39.6480960   9.7228600  26.8305430  35.8020180   8.5040480  15.8024780
  35.4248160   8.9927580  15.0709680  36.0593250   9.1765760  16.4331310
  51.4265430  10.7780030  24.8372570  50.7428950  11.4479140  24.8289240
  51.9659720  10.9760680  24.0717430  48.9624170  12.6224160  23.5517750
  48.9751330  12.2186450  22.6840010  48.4099390  13.3971450  23.4479180
  50.2569590   9.3440380  18.6407920  50.1465920   8.4014710  18.7657340
  50.2537840   9.7056020  19.5270680  48.3609610   7.5254000  24.8800360
  48.7778400   7.3114110  24.0453820  49.0849430   7.7826790  25.4508980
  45.7989870   4.9705700  17.9970410  44.8719150   4.9043080  18.2258880
  45.9514690   5.9085830  17.8825650  52.3071710   5.9241220  24.9716600
  51.4790340   5.9934310  24.4966730  52.9022190   6.5095530  24.5032430
  49.8287160   6.5326000  18.5005660  49.2099580   6.1945550  17.8531960
  49.8111610   5.8885760  19.2084850  49.2713720   2.7110540  25.9171470
  48.8584900   3.5364250  26.1711460  48.5389670   2.1255580  25.7247830
  41.4046510   5.4970440  20.7790140  41.0003510   4.7847690  20.2836040
  41.4909630   5.1523680  21.6678180  41.8728210   9.1838000  22.9429350
  41.5756500   8.5783470  22.2637130  42.8228030   9.2215310  22.8318710
  40.1175130   2.2713650  24.5589180  40.6689720   2.3808990  23.7842430
  40.6318640   2.6451250  25.2744410  49.9613820  12.7569870  26.6052450
  49.4844380  13.5642060  26.4125060  49.2775610  12.1048200  26.7578660
  40.9646640   8.9219690  29.5937150  40.0675170   9.1459660  29.8410550
  40.9899510   9.0454630  28.6448550  48.0051860   5.7712810  15.5078410
  48.4445140   4.9335240  15.3616230  48.7180280   6.4042210  15.5942550
  39.7917860   5.7933010  28.1694520  39.6525630   6.6655810  28.5381920
  38.9099220   5.4505820  28.0242460  46.1147240  10.7108880  19.4759650
  46.5543150  11.4533210  19.0615040  46.0534130  10.9535450  20.3998610
  41.5898210  11.7354710  30.3779670  41.5613640  12.1397660  29.5108100
  41.4263180  10.8065070  30.2151270  38.1051140   4.3915420  18.2796790
  37.9848740   5.1177510  17.6678060  37.7952030   3.6218330  17.8024700
  53.5413030  12.5181810  31.6743840  54.0172750  12.9964700  32.3532920
  54.1620190  12.4499300  30.9489340  35.7436510   7.5630560  24.0865430
  35.8216930   7.6979330  23.1421150  36.3578190   6.8546450  24.2793550
  36.9884140   9.2630750  20.4971610  36.5812220   9.4045340  19.6425210
  37.8797150   8.9790910  20.2942820  52.9446280   9.7094660  28.8343850
  53.0709340   9.4706540  27.9161030  52.9867660   8.8779200  29.3065930
  46.8063020  13.4122660  27.4038660  47.3207690  13.3230670  28.2061090
  45.9632100  13.7582360  27.6966570  48.7817420  13.6978000  16.8322660
  48.6218560  13.4080940  17.7304490  48.6164130  12.9218130  16.2967890
  41.2605800  13.4776530  18.6094280  41.0848280  12.5612070  18.3962080
  40.4061540  13.8363820  18.8492080  48.4843550  11.2065560  15.3920660
  47.7908710  11.2042850  14.7322940  49.2266410  10.7824880  14.9614830
  48.0493480  12.8328270  19.4669150  48.5050430  12.0517650  19.7807770
  48.3886000  13.5435090  20.0110330  35.7996030   8.6044730  26.6259890
  35.9627070   8.1350090  25.8079260  36.2648480   8.0968290  27.2908730
  46.9538830   3.3229710  30.4951230  47.2792240   2.4893460  30.1553460
  47.7419160   3.8458230  30.6429560  40.3629020   2.8584060  19.3901710
  40.1369940   2.6421230  20.2948330  39.5821550   3.2912520  19.0447680
  47.5926780   2.8647430  17.9892360  46.9935670   3.5883230  17.8055980
  48.1406390   2.8024210  17.2068810  42.8028230   3.7569640  30.0561980
  42.7071830   2.8164370  29.9062380  43.6460210   3.9784710  29.6610050
  35.4226050   2.0331890  13.4528560  35.3400720   2.9762650  13.5943550
  35.0709110   1.8906800  12.5740910  46.7846790   4.0916720  24.1146420
  46.0527910   4.6003530  24.4636520  46.3871130   3.2746700  23.8135200
  43.2844330   1.7683000  15.5105670  43.4057150   1.7269480  16.4591490
  42.8992840   2.6307150  15.3552400  42.2965830   4.0784140  14.9088970
  41.7282730   3.6302390  14.2824880  43.0054830   4.4376920  14.3754120
  37.3735010   7.9796160  28.7855700  36.9889800   7.3389830  29.3838660
  37.6847200   8.6832280  29.3550430  43.5232150   4.8272700  24.2664320
  43.8902280   4.3531270  25.0125660  43.3337210   5.7014270  24.6072660
  41.3131520   3.8681340  26.5848530  41.0088590   4.7473320  26.8098890
  42.2677980   3.9281130  26.6205970  39.8413310   8.0742330  17.1815380
  39.0675570   7.5339950  17.0214100  40.5707940   7.5548940  16.8433140
  50.6001290   7.0707690  22.9741770  51.3200410   7.5662980  22.5837880
  50.3983110   6.3925580  22.3295640  45.9820090   7.1416750  28.8610770
  45.9157400   6.2212420  28.6068360  45.3525230   7.2392190  29.5755410
  48.7759620   2.8365300  15.4133320  49.6639240   3.1482530  15.2384660
  48.7464710   1.9637550  15.0213900  39.8850710   7.7422710  20.8194190
  40.4029380   6.9390970  20.7651080  39.4334730   7.6801850  21.6611020
  44.7720210   9.0088990  16.0921490  45.1135910   9.7531220  15.5964810
  43.9432920   9.3220110  16.4546320  37.3695250   4.7084080  27.7319890
  37.0110190   5.3737930  28.3193230  37.0749810   3.8767630  28.1032510
  40.5708370   5.1668320  30.6159440  40.2708510   5.3125500  29.7187260
  41.3419610   4.6073610  30.5232830  45.9136820   9.9637320  28.6114570
  45.9281360   9.0318280  28.3933480  45.2061920  10.0497080  29.2504340
  51.0473890   4.1477140  14.8813180  50.9637610   4.5791360  14.0309620
  51.7668080   4.6075490  15.3140000  52.1248030   6.6044660  27.9583150
  51.3996220   7.1973440  27.7612540  52.6523490   6.5968200  27.1596520
  52.0761140  11.0019400  17.6095310  51.4337300  10.3475020  17.8839030
  51.6891800  11.4074490  16.8335980  47.6547620   8.3304830  21.4567000
  48.0071440   7.7332960  20.7968370  46.7709950   8.0049060  21.6275250
  43.7410900   9.0902520  18.8637410  44.4282030   9.6371730  19.2445000
  42.9543320   9.6343250  18.8987020  35.8803300   4.7075340  14.3554490
  36.7498150   4.9900140  14.6390410  35.3893620   5.5211210  14.2403300
  43.0438110   6.0948550  18.4762770  43.5000890   6.9053800  18.7022960
  42.6926320   5.7771690  19.3081260  45.3470720  11.6054890  25.7055070
  45.9912940  11.8114270  26.3828490  45.7100160  10.8443290  25.2525920
  46.6202800   9.6087240  24.4232520  47.2625030   8.9080400  24.5364690
  47.1452150  10.3885680  24.2429410  50.4658520   9.8935860  14.1471660
  50.2396100   9.1766300  14.7396300  50.0754720   9.6448300  13.3093410
  48.3940420  10.4082140  27.6268580  48.7296660  10.9948830  28.3046500
  47.4740760  10.2774850  27.8566370  50.0474770   7.8107800  15.8085820
  49.7596470   8.2720490  16.5963700  50.8426940   7.3505570  16.0770040
  44.2229000  10.4573470  30.7956640  43.9025870   9.7382710  31.3402330
  43.5487360  11.1328540  30.8692700  42.2643170  11.3033920  15.7389790
  42.2553270  12.0363610  15.1234300  41.3441530  11.0565500  15.8316750
  37.8649810   6.5248810  16.4836550  37.2577760   7.2647710  16.4931850
  38.3399160   6.6148170  15.6574750  45.2502770  11.3662160  14.4014980
  45.3514750  11.1626150  13.4716960  44.3504510  11.1120440  14.6062760
  44.3984590   3.3439220  26.3831410  44.8969840   3.8185040  27.0483260
  44.5407540   2.4202740  26.5901440  43.8920880  13.8848480  19.0962650
  44.1462380  13.8469870  18.1742020  42.9433360  13.7581810  19.0890900
  49.8973460   4.8040360  20.6721160  48.9563600   4.8190590  20.8468850
  50.2117530   4.0176320  21.1181460  39.8755100   6.4859960  14.2325120
  40.6418370   6.3741320  14.7950550  39.9529790   5.7897930  13.5801890
  38.5701860   3.9185030  14.9158010  38.6505450   2.9712540  15.0275410
  39.4621610   4.2491910  15.0218670  51.8999040  11.9749210  22.3475420
  52.0246460  12.7980380  22.8199230  52.7664600  11.7639940  21.9999570
  39.3716570  14.0680420  22.0192550  40.1079050  13.5195880  22.2901120
  39.7557490  14.9336430  21.8798540  36.2562050  10.1353990  17.8934060
  35.3301830  10.3775130  17.8839470  36.7218480  10.9628250  17.7718810
  42.4818880  13.2410730  13.8418120  43.2747490  13.5299560  13.3899910
  41.9623230  12.8102900  13.1630600  47.2139480   9.3606360  31.1553540
  46.6077640   9.3837960  30.4149290  46.9093590   8.6289400  31.6920790
  51.5349050  12.4680860  15.2654860  51.2490560  12.0546000  14.4509040
  51.3368600  13.3968570  15.1455380  36.0972660   5.7399950  30.1514180
  36.6011680   5.1607230  30.7230410  35.3580080   6.0240180  30.6890550
  42.9996280   8.4614140  13.7060470  42.8946920   7.8466490  14.4321850
  42.8320500   7.9380030  12.9223480  43.1510600   7.1470940  29.6849700
  42.3856270   7.7155940  29.6004370  43.3326560   6.8547150  28.7917930
  46.2399010   7.5234170  14.3102460  45.6909110   7.9703470  14.9545200
  46.8618270   7.0183420  14.8340130  50.2933950   8.8776270  30.2424720
  51.0343420   9.2152030  29.7392180  49.5306630   9.0468330  29.6894490
  38.1295740   3.8829540  31.0464250  38.1701080   3.5843410  31.9549480
  38.9841240   4.2837150  30.8871770  41.9074130   6.4825090  16.2067760
  42.3290550   6.3164960  17.0499150  42.0324970   5.6725320  15.7122900
  40.0701550   2.4621640  29.0138740  39.5398010   1.9712590  28.3862080
  40.7389620   2.8905840  28.4796670  44.4201770   5.5062700  13.4544860
  44.9407430   4.7911720  13.0886010  45.0670170   6.1448570  13.7545370
  48.9679610   6.9291100  28.7779930  49.3820630   7.0836180  29.6270350
  48.0330610   7.0546320  28.9405710  49.4401780   4.2687260  30.7819080
  50.0222550   3.5139580  30.6939560  49.6163550   4.7994700  30.0050560
  43.7294840   6.8811580  26.7475860  44.1482950   7.7244310  26.5752100
  42.8103470   7.0183620  26.5182640  46.0658740   4.6127760  28.1313700
  46.1854950   4.0168900  28.8708540  46.9252740   4.6497450  27.7115000
  48.4046640   5.1664950  26.7076210  47.8781860   5.6907570  26.1041350
  48.7477980   5.7992340  27.3385940  40.8033030   2.5558320  13.1525920
  40.6022090   1.6925680  13.5139260  40.6325080   2.4691680  12.2147520
  41.5802260  13.1864590  27.8633590  41.0423350  13.9110650  27.5442290
  41.8336220  12.7094930  27.0730930  44.9849800  13.5874310  15.7446600
  45.8800590  13.9259280  15.7665360  45.0167430  12.8653720  15.1170880
  38.6245960   8.9601360  13.9733600  39.0620830   9.5031030  14.6291180
  39.1093690   8.1348310  13.9829940  35.8391760  11.7490390  21.4253860
  36.1694770  10.8811450  21.1932500  36.2682760  11.9548910  22.2558820
  40.4353680  10.0799400  19.0855830  40.1349220   9.9564370  19.9859740
  40.3291170   9.2207990  18.6771560  36.3281970  12.6160980  24.1635490
  35.8912960  12.7961780  24.9959640  36.8959650  13.3735600  24.0217210
  51.9644150  12.1177980  28.4512800  51.3646140  12.1770540  27.7076720
  52.0938050  11.1782960  28.5809650  53.2045600   9.8595800  13.7882510
  52.3738560   9.9272450  14.2589740  53.3817430  10.7499920  13.4849370
  52.6602060   6.6043280  16.2916710  53.4220970   7.1739930  16.3976400
  52.6756430   6.0370480  17.0625020  36.1606400   5.1281210  20.5224370
  35.5055240   4.8592850  19.8784070  36.9984350   5.0185690  20.0726350
  53.6662030   7.4593380  21.1358640  54.0370860   6.6760700  20.7294610
  54.3063960   8.1482480  20.9575940  50.6495790   8.8429960  26.5488960
  49.8355630   9.2727120  26.8114750  51.0569990   9.4548370  25.9358010
  52.7121230   6.8977650  13.4489230  52.9870070   7.8056530  13.3208450
  52.5231970   6.8340180  14.3851220  52.6086570   4.8346640  18.4418660
  52.2330170   4.0674570  18.0099950  51.8789690   5.2169340  18.9293590
  37.1982330   5.5133780  25.0627710  37.5655370   5.4261180  25.9423730
  36.6293150   4.7500330  24.9634570  51.9986190   3.9818160  28.0758180
  51.7672280   3.7530910  27.1756130  52.2590740   4.9017710  28.0303070
  36.7498330   2.4242870  28.9686130  35.8554380   2.3909630  29.3079840
  37.2895880   2.6229660  29.7337380  35.3744480   2.3380140  16.4649700
  34.4708560   2.6010340  16.2901360  35.8585100   2.6091310  15.6849660
  51.8837530   3.0604130  21.7425900  52.4075010   2.5666780  21.1116070
  52.4696950   3.1954490  22.4873470  52.0627250   3.1444000  25.2645450
  51.1129960   3.1107540  25.3790440  52.2440260   4.0544110  25.0295220
  50.7071840  13.5948560  20.0757230  51.3030910  13.2733130  19.3991650
  50.9649990  13.1220380  20.8670500  38.6134410  10.0266470  30.2247860
  38.5704040   9.6559380  31.1062320  38.7445420  10.9644040  30.3649680
  42.3140440  11.5826060  25.8257580  42.0731800  11.8500620  24.9388100
  43.2543080  11.7531790  25.8808440  53.5744600  13.6020440  26.6268220
  53.0802880  13.9989310  25.9095350  52.9657890  12.9769650  27.0205500
  51.2584050  14.2443860  23.9054960  50.7987020  14.9959670  23.5312980
  50.6296510  13.5250330  23.8469760  38.0834670  10.3387100  26.2953680
  37.3568730   9.7192390  26.2279630  38.1443820  10.7327710  25.4251760
  41.6879770  12.5532100  23.0803090  42.2044790  11.9419460  22.5551350
  42.3377150  13.0560880  23.5714100  44.4275270  13.4440590  23.9072070
  44.7153080  13.1894890  23.0305080  44.9398490  12.8917950  24.4977640
  37.9727370  12.3494720  16.9500580  37.4474990  12.7302750  16.2462540
  37.8971950  12.9745490  17.6710290  52.7292690  13.9082260  18.2714520
  52.9044880  13.2220000  17.6275440  52.0314260  14.4329310  17.8791190
  40.5720340  14.2977100  15.8249830  41.3039160  14.0136380  15.2773720
  40.8314010  14.0590380  16.7149210  39.7335130  10.4141830  15.8296160
  39.1044010  10.8826930  16.3781990  39.8482960   9.5691050  16.2642350
  51.0625190  13.5926550  31.0981310  51.8550510  13.0975780  30.8907270
  51.3558340  14.2716690  31.7056920  45.3202890   6.2426510   3.8606630
  44.5444990   5.7626950   4.1505200  45.9715820   5.5632160   3.6862790
  39.3368720   6.5546320   4.7382390  38.5053600   6.2995030   5.1378900
  39.9449700   6.6257090   5.4740310  49.3410320  10.6486700   2.6405760
  48.8791850   9.8773940   2.9692930  50.1535870  10.6752770   3.1458210
  39.3169980  10.5886410   4.9340410  39.6198020   9.6984150   4.7550630
  40.0613570  11.1456630   4.7062660  35.7093680   4.1153860   4.4064480
  36.2809790   3.3476060   4.4068120  35.7095220   4.4142620   3.4971090
  45.5673630  12.9344710   2.2609750  44.9485070  13.3902210   1.6904190
  46.4225410  13.0896170   1.8599450  44.7611880   8.9183700   3.8676790
  44.6920160   7.9773640   3.7065920  45.5231740   9.0085110   4.4399360
  41.7629790   3.0666080   3.8888340  42.2708010   3.5647050   4.5293360
  42.2943030   2.2901280   3.7127700  41.2968740   7.3459820   6.3325260
  40.9638120   7.9728740   6.9746330  41.4735420   7.8721700   5.5526930
  40.5087840   9.3140620   8.1474440  41.1261840   9.9891700   7.8658890
  39.6480960   9.7228600   8.0561940  51.4265430  10.7780030   6.0629080
  50.7428950  11.4479140   6.0545750  51.9659720  10.9760680   5.2973940
  48.9624170  12.6224160   4.7774260  48.9751330  12.2186450   3.9096520
  48.4099390  13.3971450   4.6735690  48.3609610   7.5254000   6.1056870
  48.7778400   7.3114110   5.2710330  49.0849430   7.7826790   6.6765490
  52.3071710   5.9241220   6.1973110  51.4790340   5.9934310   5.7223240
  52.9022190   6.5095530   5.7288940  49.2713720   2.7110540   7.1427980
  48.8584900   3.5364250   7.3967970  48.5389670   2.1255580   6.9504340
  41.8728210   9.1838000   4.1685860  41.5756500   8.5783470   3.4893640
  42.8228030   9.2215310   4.0575220  40.1175130   2.2713650   5.7845690
  40.6689720   2.3808990   5.0098940  40.6318640   2.6451250   6.5000920
  49.9613820  12.7569870   7.8308960  49.4844380  13.5642060   7.6381570
  49.2775610  12.1048200   7.9835170  40.9646640   8.9219690  10.8193660
  40.0675170   9.1459660  11.0667060  40.9899510   9.0454630   9.8705060
  39.7917860   5.7933010   9.3951030  39.6525630   6.6655810   9.7638430
  38.9099220   5.4505820   9.2498970  41.5898210  11.7354710  11.6036180
  41.5613640  12.1397660  10.7364610  41.4263180  10.8065070  11.4407780
  53.5413030  12.5181810  12.9000350  54.0172750  12.9964700  13.5789430
  54.1620190  12.4499300  12.1745850  35.7436510   7.5630560   5.3121940
  35.8216930   7.6979330   4.3677660  36.3578190   6.8546450   5.5050060
  52.9446280   9.7094660  10.0600360  53.0709340   9.4706540   9.1417540
  52.9867660   8.8779200  10.5322440  46.8063020  13.4122660   8.6295170
  47.3207690  13.3230670   9.4317600  45.9632100  13.7582360   8.9223080
  35.7996030   8.6044730   7.8516400  35.9627070   8.1350090   7.0335770
  36.2648480   8.0968290   8.5165240  46.9538830   3.3229710  11.7207740
  47.2792240   2.4893460  11.3809970  47.7419160   3.8458230  11.8686070
  42.8028230   3.7569640  11.2818490  42.7071830   2.8164370  11.1318890
  43.6460210   3.9784710  10.8866560  46.7846790   4.0916720   5.3402930
  46.0527910   4.6003530   5.6893030  46.3871130   3.2746700   5.0391710
  37.3735010   7.9796160  10.0112210  36.9889800   7.3389830  10.6095170
  37.6847200   8.6832280  10.5806940  43.5232150   4.8272700   5.4920830
  43.8902280   4.3531270   6.2382170  43.3337210   5.7014270   5.8329170
  41.3131520   3.8681340   7.8105040  41.0088590   4.7473320   8.0355400
  42.2677980   3.9281130   7.8462480  50.6001290   7.0707690   4.1998280
  51.3200410   7.5662980   3.8094390  50.3983110   6.3925580   3.5552150
  45.9820090   7.1416750  10.0867280  45.9157400   6.2212420   9.8324870
  45.3525230   7.2392190  10.8011920  39.8850710   7.7422710   2.0450700
  40.4029380   6.9390970   1.9907590  39.4334730   7.6801850   2.8867530
  37.3695250   4.7084080   8.9576400  37.0110190   5.3737930   9.5449740
  37.0749810   3.8767630   9.3289020  40.5708370   5.1668320  11.8415950
  40.2708510   5.3125500  10.9443770  41.3419610   4.6073610  11.7489340
  45.9136820   9.9637320   9.8371080  45.9281360   9.0318280   9.6189990
  45.2061920  10.0497080  10.4760850  52.1248030   6.6044660   9.1839660
  51.3996220   7.1973440   8.9869050  52.6523490   6.5968200   8.3853030
  47.6547620   8.3304830   2.6823510  48.0071440   7.7332960   2.0224880
  46.7709950   8.0049060   2.8531760  45.3470720  11.6054890   6.9311580
  45.9912940  11.8114270   7.6085000  45.7100160  10.8443290   6.4782430
  46.6202800   9.6087240   5.6489030  47.2625030   8.9080400   5.7621200
  47.1452150  10.3885680   5.4685920  48.3940420  10.4082140   8.8525090
  48.7296660  10.9948830   9.5303010  47.4740760  10.2774850   9.0822880
  36.2316410  12.1857580  10.6215030  36.3407530  11.2452320  10.4810420
  35.5796970  12.4512330   9.9728760  44.2229000  10.4573470  12.0213150
  43.9025870   9.7382710  12.5658840  43.5487360  11.1328540  12.0949210
  44.3984590   3.3439220   7.6087920  44.8969840   3.8185040   8.2739770
  44.5407540   2.4202740   7.8157950  49.8973460   4.8040360   1.8977670
  48.9563600   4.8190590   2.0725360  50.2117530   4.0176320   2.3437970
  51.8999040  11.9749210   3.5731930  52.0246460  12.7980380   4.0455740
  52.7664600  11.7639940   3.2256080  39.3716570  14.0680420   3.2449060
  40.1079050  13.5195880   3.5157630  39.7557490  14.9336430   3.1055050
  38.3774850  13.2526490  12.4334640  39.1787580  13.5738540  12.8470040
  37.8626670  12.8922070  13.1554550  47.2139480   9.3606360  12.3810050
  46.6077640   9.3837960  11.6405800  46.9093590   8.6289400  12.9177300
  48.6439850  13.0886650  10.9919460  49.5961600  13.0044670  10.9419700
  48.4968070  13.7528360  11.6653250  36.0972660   5.7399950  11.3770690
  36.6011680   5.1607230  11.9486920  35.3580080   6.0240180  11.9147060
  43.1510600   7.1470940  10.9106210  42.3856270   7.7155940  10.8260880
  43.3326560   6.8547150  10.0174440  50.2933950   8.8776270  11.4681230
  51.0343420   9.2152030  10.9648690  49.5306630   9.0468330  10.9151000
  38.1295740   3.8829540  12.2720760  38.1701080   3.5843410  13.1805990
  38.9841240   4.2837150  12.1128280  40.0701550   2.4621640  10.2395250
  39.5398010   1.9712590   9.6118590  40.7389620   2.8905840   9.7053180
  48.9679610   6.9291100  10.0036440  49.3820630   7.0836180  10.8526860
  48.0330610   7.0546320  10.1662220  49.4401780   4.2687260  12.0075590
  50.0222550   3.5139580  11.9196070  49.6163550   4.7994700  11.2307070
  43.7294840   6.8811580   7.9732370  44.1482950   7.7244310   7.8008610
  42.8103470   7.0183620   7.7439150  46.0658740   4.6127760   9.3570210
  46.1854950   4.0168900  10.0965050  46.9252740   4.6497450   8.9371510
  48.4046640   5.1664950   7.9332720  47.8781860   5.6907570   7.3297860
  48.7477980   5.7992340   8.5642450  41.5802260  13.1864590   9.0890100
  41.0423350  13.9110650   8.7698800  41.8336220  12.7094930   8.2987440
  44.4364470  14.4215800   9.3476750  44.3623170  15.3250940   9.6549120
  43.5343310  14.1027700   9.3198820  35.8391760  11.7490390   2.6510370
  36.1694770  10.8811450   2.4189010  36.2682760  11.9548910   3.4815330
  36.3281970  12.6160980   5.3892000  35.8912960  12.7961780   6.2216150
  36.8959650  13.3735600   5.2473720  51.9644150  12.1177980   9.6769310
  51.3646140  12.1770540   8.9333230  52.0938050  11.1782960   9.8066160
  53.6662030   7.4593380   2.3615150  54.0370860   6.6760700   1.9551120
  54.3063960   8.1482480   2.1832450  50.6495790   8.8429960   7.7745470
  49.8355630   9.2727120   8.0371260  51.0569990   9.4548370   7.1614520
  37.1982330   5.5133780   6.2884220  37.5655370   5.4261180   7.1680240
  36.6293150   4.7500330   6.1891080  51.9986190   3.9818160   9.3014690
  51.7672280   3.7530910   8.4012640  52.2590740   4.9017710   9.2559580
  36.7498330   2.4242870  10.1942640  35.8554380   2.3909630  10.5336350
  37.2895880   2.6229660  10.9593890  51.8837530   3.0604130   2.9682410
  52.4075010   2.5666780   2.3372580  52.4696950   3.1954490   3.7129980
  52.0627250   3.1444000   6.4901960  51.1129960   3.1107540   6.6046950
  52.2440260   4.0544110   6.2551730  38.6134410  10.0266470  11.4504370
  38.5704040   9.6559380  12.3318830  38.7445420  10.9644040  11.5906190
  42.3140440  11.5826060   7.0514090  42.0731800  11.8500620   6.1644610
  43.2543080  11.7531790   7.1064950  53.5744600  13.6020440   7.8524730
  53.0802880  13.9989310   7.1351860  52.9657890  12.9769650   8.2462010
  38.4522440  12.9728720   8.5702150  37.8582760  12.8413420   9.3092190
  38.4446280  12.1366860   8.1044250  51.2584050  14.2443860   5.1311470
  50.7987020  14.9959670   4.7569490  50.6296510  13.5250330   5.0726270
  38.0834670  10.3387100   7.5210190  37.3568730   9.7192390   7.4536140
  38.1443820  10.7327710   6.6508270  41.6879770  12.5532100   4.3059600
  42.2044790  11.9419460   3.7807860  42.3377150  13.0560880   4.7970610
  44.4275270  13.4440590   5.1328580  44.7153080  13.1894890   4.2561590
  44.9398490  12.8917950   5.7234150  44.4947630  14.3656690  12.4996780
  45.4214940  14.1300960  12.5432740  44.4798060  15.1928690  12.0182810
  51.0625190  13.5926550  12.3237820  51.8550510  13.0975780  12.1163780
  51.3558340  14.2716690  12.9313430  28.4141360  60.7877960  58.3027830
  28.3335410  59.8732570  58.0319540  28.0005780  61.2845030  57.5967540
  26.5459400  62.5656980  60.1837100  25.7701500  62.0857420  60.4735670
  27.1972330  61.8862630  60.0093260  20.5625230  62.8776790  61.0612860
  19.7310110  62.6225500  61.4609370  21.1706210  62.9487560  61.7970780
  18.9717180  57.8378680  54.8455250  18.0833880  58.1794650  54.7435130
  19.2558370  57.6379000  53.9536080  16.9350190  60.4384330  60.7294950
  17.5066300  59.6706530  60.7298590  16.9351730  60.7373090  59.8201560
  27.0173560  58.0484550  60.4176190  27.3938380  57.1756430  60.3049860
  26.9193070  58.3843250  59.5266630  21.1478570  56.4210180  55.8793630
  21.2545320  57.3213910  56.1862390  20.2370930  56.3728150  55.5888280
  30.7997680  55.5434990  57.3504530  31.6207300  55.0531560  57.3930010
  30.8331760  56.1332650  58.1036370  18.7961730  58.3429190  61.1246220
  19.4771840  58.6067560  61.7433620  18.4809780  57.5030060  61.4584230
  22.9886300  59.3896550  60.2118810  23.4964520  59.8877520  60.8523830
  23.5199540  58.6131750  60.0358170  27.6593490  64.1414420  55.9772130
  27.0410760  64.6063870  55.4134850  28.1716740  64.8341900  56.3941640
  31.0359160  57.4835370  60.1232070  30.3314730  57.7720260  60.7035180
  31.3971320  58.2935480  59.7631630  34.1046080  56.9290160  60.5141280
  33.1570990  56.9629140  60.6456710  34.4296070  57.7429110  60.8990640
  24.6365620  53.2287340  58.8097270  24.9440600  52.6734230  58.0932770
  23.7066320  53.3631800  58.6270260  27.0246380  61.2936170  55.5457390
  26.0975660  61.2273550  55.7745860  27.1771200  62.2316300  55.4312630
  27.0115460  57.5653170  52.5424550  26.0719130  57.7267130  52.6277010
  27.3298720  58.2838850  51.9960540  31.0543670  62.8556470  56.0492640
  30.4356090  62.5176020  55.4018940  31.0368120  62.2116230  56.7571830
  22.6303020  61.8200910  58.3277120  22.2260020  61.1078160  57.8323020
  22.7166140  61.4754150  59.2165160  29.2308370  62.0943280  53.0565390
  29.6701650  61.2565710  52.9103210  29.9436790  62.7272680  53.1429530
  32.8125510  53.3486090  51.3706430  32.4998170  53.4412920  52.2705500
  33.5737980  53.9267120  51.3203860  19.3307650  60.7145890  55.8283770
  19.2105250  61.4407980  55.2165040  19.0208540  59.9448800  55.3511680
  16.9693020  63.8861030  61.6352410  17.0473440  64.0209800  60.6908130
  17.5834700  63.1776920  61.8280530  21.7971310  54.0580960  59.2107440
  21.3539460  54.8390500  58.8791960  22.3556300  54.3810850  59.9178380
  24.9130130  53.6791660  54.0913270  24.2884310  53.6751530  54.8166580
  24.8260250  52.8122620  53.6949240  23.8347210  54.6028290  61.0697040
  24.1319540  55.5091120  60.9889060  24.3832770  54.1147070  60.4556610
  21.5885530  59.1814530  56.9388690  21.3626450  58.9651700  57.8435310
  20.8078060  59.6142990  56.5934660  28.8183290  59.1877900  55.5379340
  28.2192180  59.9113700  55.3542960  29.3662900  59.1254680  54.7555790
  27.4248160  57.8241440  57.5682620  27.8177730  58.1413640  56.7551310
  27.7865010  56.9453320  57.6827140  16.4612330  54.4142240  59.7912820
  16.1725380  54.9845100  60.5037800  17.2058090  53.9346690  60.1544050
  16.6482560  58.3562360  51.0015540  16.5657230  59.2993120  51.1430530
  16.2965620  58.2137270  50.1227890  24.4480690  57.0901390  60.0685890
  24.4516750  56.6491340  59.2190430  25.3431810  57.4118720  60.1757710
  20.2983070  56.9727880  59.0280100  19.9583120  57.4503110  59.7847150
  19.5360390  56.5193000  58.6681200  24.5100840  58.0913470  53.0592650
  24.6313660  58.0499950  54.0078470  24.1249350  58.9537620  52.9039380
  28.4729210  55.8680870  61.0756340  28.4901950  56.3189520  61.9198190
  28.2244790  54.9686510  61.2889780  23.5222340  60.4014610  52.4575950
  22.9539240  59.9532860  51.8311860  24.2311340  60.7607390  51.9241100
  17.6129150  55.8946860  57.9444770  17.3276070  55.5302530  58.7823390
  17.5508010  55.1627320  57.3307910  21.0669820  64.3972800  54.7302360
  20.2932080  63.8570420  54.5701080  21.7964450  63.8779410  54.3920120
  31.8257800  63.3938160  60.5228750  32.5456920  63.8893450  60.1324860
  31.6239620  62.7156050  59.8782620  27.2867740  54.7876120  54.6658140
  26.4732350  54.2889290  54.5903450  27.0929690  55.6274370  54.2494490
  30.0016130  59.1595770  52.9620300  30.8895750  59.4713000  52.7871640
  29.9721220  58.2868020  52.5700880  21.1107220  64.0653180  58.3681170
  21.6285890  63.2621440  58.3138060  20.6591240  64.0032320  59.2098000
  32.2730400  60.4707610  52.4300160  32.1894120  60.9021830  51.5796600
  32.9924590  60.9305960  52.8626980  28.8804130  64.6535300  59.0053980
  29.2327950  64.0563430  58.3455350  27.9966460  64.3279530  59.1762230
  17.1059810  61.0305810  51.9041470  17.9754660  61.3130610  52.1877390
  16.6150130  61.8441680  51.7890280  24.2694620  62.4179020  56.0249750
  24.7257400  63.2284270  56.2509940  23.9182830  62.1002160  56.8568240
  20.1706400  52.7616670  56.4972270  20.0421030  52.7534570  57.4457190
  19.3468420  53.0999760  56.1463280  31.2731280  64.1338270  53.3572800
  30.9852980  64.5950960  54.1450680  32.0683450  63.6736040  53.6257020
  19.0906320  62.8479280  54.0323530  18.4834270  63.5878180  54.0418830
  19.5655670  62.9378640  53.2061730  32.0301140  55.9687040  54.5167980
  31.4014300  56.0732710  53.8026210  31.5353060  56.1883820  55.3061860
  23.9985170  58.2472990  55.9325860  23.2901320  58.7159330  56.3739470
  24.2829650  57.5895000  56.5671050  28.0300600  54.9723650  57.3721650
  27.9068380  54.9909780  56.4231160  28.9785160  55.0202590  57.4920050
  22.2020190  56.5558070  53.3076570  23.0510720  56.9928220  53.2416760
  21.8351460  56.8678330  54.1348630  31.1229970  61.1270830  58.2208140
  30.1820110  61.1421060  58.3955830  31.4374040  60.3406790  58.6668440
  21.1011610  62.8090430  51.7812100  21.8674880  62.6971790  52.3437530
  21.1786300  62.1128400  51.1288870  19.7958370  60.2415500  52.4644990
  19.8761960  59.2943010  52.5762390  20.6878120  60.5722380  52.5705650
  24.2252790  64.7844610  51.2547450  24.1203430  64.1696960  51.9808830
  24.0577010  64.2610500  50.4710460  27.4655520  63.8464640  51.8589440
  26.9165620  64.2933940  52.5032180  28.0874780  63.3413890  52.3827110
  23.1330640  62.8055560  53.7554740  23.5547060  62.6395430  54.5986130
  23.2581480  61.9955790  53.2609880  25.6458280  61.8293170  51.0031840
  26.1663940  61.1142190  50.6372990  26.2926680  62.4679040  51.3032350
  22.0289540  58.8788790  50.7012900  21.8278600  58.0156150  51.0626240
  21.8581590  58.7922150  49.7634500  29.5077850  53.6897020  53.2299780
  29.7880140  52.8464920  53.5859200  28.7343580  53.9220130  53.7438530
  20.8272340  55.9789410  50.6890780  21.1298240  55.9856840  49.7809930
  21.5666930  55.6287270  51.1858440  24.0457270  54.9224030  51.6746980
  23.6979270  54.2448020  51.0949430  24.2470040  54.4613540  52.4890370
  33.8858570  62.9273750  53.8403690  34.6477480  63.4970400  53.9463380
  33.9012940  62.3600950  54.6112000  17.3862910  61.4511680  58.0711350
  16.7311750  61.1823320  57.4271050  18.2240860  61.3416160  57.6213330
  34.8918540  63.7823850  58.6845620  35.2627370  62.9991170  58.2781590
  35.5320470  64.4712950  58.5062920  33.9377740  63.2208120  50.9976210
  34.2126580  64.1287000  50.8695430  33.7488480  63.1570650  51.9338200
  30.3353350  56.2452970  52.2929840  30.7538230  56.0583950  51.4526500
  30.0289410  55.3932020  52.6032770  33.8343080  61.1577110  55.9905640
  33.4586680  60.3905040  55.5586930  33.1046200  61.5399810  56.4780570
  16.6000990  58.6610610  54.0136680  15.6965070  58.9240810  53.8388340
  17.0841610  58.9321780  53.2336640  33.1094040  59.3834600  59.2912880
  33.6331520  58.8897250  58.6603050  33.6953460  59.5184960  60.0360450
  19.1428200  57.7176150  51.9231060  19.8519900  57.2959370  51.4378340
  18.4268140  57.7851380  51.2914410  18.7902360  53.7715480  50.9633710
  19.5130490  54.3124420  51.2814930  19.0626880  53.4978900  50.0875250
  32.5994010  58.6407950  55.2305290  33.0953130  58.4078820  56.0154170
  32.4010080  57.8019790  54.8142930  18.4794550  53.0221670  60.8656330
  19.1270740  52.4719050  60.4251490  18.8996390  53.2764820  61.6872140
  34.0281170  57.2768900  57.7642970  33.9180450  57.1224940  58.7025240
  34.7888760  56.7489840  57.5218380  34.9171440  55.1076820  51.0049110
  35.8420750  54.9758000  50.7967400  34.8947230  55.1869640  51.9585560
  34.9909930  55.8787480  53.6305820  34.1961430  55.8132600  54.1598730
  35.1953210  56.8138120  53.6191170  31.4229860  54.2084360  60.0804650
  31.8637950  54.1529460  59.2326250  31.1537450  55.1242370  60.1514830
  33.2868430  53.8399600  58.0913470  33.2256830  52.8960820  57.9444490
  34.0660460  53.9479690  58.6366930  18.2149200  53.8108740  54.5569280
  18.9728560  53.9237620  53.9833310  17.7526370  54.6477940  54.5112710
  24.7563010  55.9248010  57.5471590  23.9437520  55.5504900  57.2067470
  25.2604650  55.1693090  57.8492780  29.2587990  52.5890460  58.7854660
  29.8617360  53.1610670  59.2603180  28.5180980  53.1529900  58.5628560
  32.4022590  52.9912020  54.0594940  32.5973220  53.8895470  54.3262370
  31.6152460  52.7599100  54.5527890  20.5874350  54.3372790  53.0971250
  21.1167110  53.5502590  52.9679200  21.2202670  55.0163980  53.3306780
  22.7812190  54.0747930  56.1516640  22.1514930  53.3735240  56.3186770
  22.2417330  54.8352060  55.9349800  28.4141360  60.7877960  39.5284340
  28.3335410  59.8732570  39.2576050  28.0005780  61.2845030  38.8224050
  26.5459400  62.5656980  41.4093610  25.7701500  62.0857420  41.6992180
  27.1972330  61.8862630  41.2349770  20.5625230  62.8776790  42.2869370
  19.7310110  62.6225500  42.6865880  21.1706210  62.9487560  43.0227290
  18.9717180  57.8378680  36.0711760  18.0833880  58.1794650  35.9691640
  19.2558370  57.6379000  35.1792590  16.9350190  60.4384330  41.9551460
  17.5066300  59.6706530  41.9555100  16.9351730  60.7373090  41.0458070
  18.1775060  55.8468690  43.7420390  17.9977900  54.9494440  44.0223150
  17.7755140  56.3940560  44.4167340  27.0173560  58.0484550  41.6432700
  27.3938380  57.1756430  41.5306370  26.9193070  58.3843250  40.7523140
  21.1478570  56.4210180  37.1050140  21.2545320  57.3213910  37.4118900
  20.2370930  56.3728150  36.8144790  18.7961730  58.3429190  42.3502730
  19.4771840  58.6067560  42.9690130  18.4809780  57.5030060  42.6840740
  22.9886300  59.3896550  41.4375320  23.4964520  59.8877520  42.0780340
  23.5199540  58.6131750  41.2614680  35.0897230  57.5601740  45.1404670
  34.3849400  57.9483450  44.6219780  35.3555150  58.2552030  45.7425600
  21.2722400  54.0295110  45.7038740  21.2740840  54.5467500  44.8984640
  20.4426710  53.5525290  45.6808670  27.6593490  64.1414420  37.2028640
  27.0410760  64.6063870  36.6391360  28.1716740  64.8341900  37.6198150
  22.5225250  63.6690290  43.8812240  22.1894630  64.2959210  44.5233310
  22.6991930  64.1952170  43.1013910  31.0359160  57.4835370  41.3488580
  30.3314730  57.7720260  41.9291690  31.3971320  58.2935480  40.9888140
  20.9537730  55.7405070  43.7109190  21.2954540  56.5847120  43.4163060
  20.0153540  55.8888810  43.8274530  34.1046080  56.9290160  41.7397790
  33.1570990  56.9629140  41.8713220  34.4296070  57.7429110  42.1247150
  29.5866120  63.8484470  43.6543850  30.0034910  63.6344580  42.8197310
  30.3105940  64.1057260  44.2252470  27.0246380  61.2936170  36.7713900
  26.0975660  61.2273550  37.0002370  27.1771200  62.2316300  36.6569140
  27.0115460  57.5653170  33.7681060  26.0719130  57.7267130  33.8533520
  27.3298720  58.2838850  33.2217050  33.5328220  62.2471690  43.7460090
  32.7046850  62.3164780  43.2710220  34.1278700  62.8326000  43.2775920
  31.0543670  62.8556470  37.2749150  30.4356090  62.5176020  36.6275450
  31.0368120  62.2116230  37.9828340  30.4970230  59.0341010  44.6914960
  30.0841410  59.8594720  44.9454950  29.7646180  58.4486050  44.4991320
  22.6303020  61.8200910  39.5533630  22.2260020  61.1078160  39.0579530
  22.7166140  61.4754150  40.4421670  21.3431640  58.5944120  43.3332670
  21.8946230  58.7039460  42.5585920  21.8575150  58.9681720  44.0487900
  29.2308370  62.0943280  34.2821900  29.6701650  61.2565710  34.1359720
  29.9436790  62.7272680  34.3686040  21.0174370  62.1163480  46.9438010
  20.8782140  62.9886280  47.3125410  20.1355730  61.7736290  46.7985950
  32.8125510  53.3486090  32.5962940  32.4998170  53.4412920  33.4962010
  33.5737980  53.9267120  32.5460370  19.3307650  60.7145890  37.0540280
  19.2105250  61.4407980  36.4421550  19.0208540  59.9448800  36.5768190
  16.9693020  63.8861030  42.8608920  17.0473440  64.0209800  41.9164640
  17.5834700  63.1776920  43.0537040  34.0226800  58.0857590  48.5737080
  33.4071070  58.5937260  48.0452540  33.7023220  57.1855920  48.5163020
  17.0252540  64.9275200  45.4003380  17.1883580  64.4580560  44.5822750
  17.4904990  64.4198760  46.0652220  21.7971310  54.0580960  40.4363950
  21.3539460  54.8390500  40.1048470  22.3556300  54.3810850  41.1434890
  26.0841120  56.9249480  46.0399270  25.6220490  57.1332500  46.8519210
  25.6819230  56.1108830  45.7369940  31.0845630  58.1458430  47.1695930
  30.2339220  57.8464180  47.4905000  30.9247420  58.3900440  46.2579750
  28.1795340  59.6460180  49.2694720  28.5048750  58.8123930  48.9296950
  28.9675670  60.1688700  49.4173050  23.8347210  54.6028290  42.2953550
  24.1319540  55.5091120  42.2145570  24.3832770  54.1147070  41.6813120
  21.5885530  59.1814530  38.1645200  21.3626450  58.9651700  39.0691820
  20.8078060  59.6142990  37.8191170  28.8183290  59.1877900  36.7635850
  28.2192180  59.9113700  36.5799470  29.3662900  59.1254680  35.9812300
  24.0284740  60.0800110  48.8305470  23.9328340  59.1394840  48.6805870
  24.8716720  60.3015180  48.4353540  27.4248160  57.8241440  38.7939130
  27.8177730  58.1413640  37.9807820  27.7865010  56.9453320  38.9083650
  19.1595280  56.4913780  46.9839250  18.7658670  57.3388990  47.1912030
  18.4713680  55.8540150  47.1747890  25.7340330  56.5748750  50.0535990
  25.0438650  56.3820950  50.6882080  26.4772630  56.8583390  50.5860290
  16.4612330  54.4142240  41.0169330  16.1725380  54.9845100  41.7294310
  17.2058090  53.9346690  41.3800560  16.6482560  58.3562360  32.2272050
  16.5657230  59.2993120  32.3687040  16.2965620  58.2137270  31.3484400
  28.0103300  60.4147190  42.8889910  27.2784420  60.9234000  43.2380010
  27.6127640  59.5977170  42.5878690  24.4480690  57.0901390  41.2942400
  24.4516750  56.6491340  40.4446940  25.3431810  57.4118720  41.4014220
  20.2983070  56.9727880  40.2536610  19.9583120  57.4503110  41.0103660
  19.5360390  56.5193000  39.8937710  24.5100840  58.0913470  34.2849160
  24.6313660  58.0499950  35.2334980  24.1249350  58.9537620  34.1295890
  28.4729210  55.8680870  42.3012850  28.4901950  56.3189520  43.1454700
  28.2244790  54.9686510  42.5146290  23.5222340  60.4014610  33.6832460
  22.9539240  59.9532860  33.0568370  24.2311340  60.7607390  33.1497610
  31.8999960  53.2813050  48.1399230  32.2245730  52.5502710  48.6657210
  31.9356470  52.9626690  47.2380220  18.5991520  64.3026630  47.5599190
  18.2146310  63.6620300  48.1582150  18.9103710  65.0062750  48.1293920
  24.7488660  61.1503170  43.0407810  25.1158790  60.6761740  43.7869150
  24.5593720  62.0244740  43.3816150  17.6129150  55.8946860  39.1701280
  17.3276070  55.5302530  40.0079900  17.5508010  55.1627320  38.5564420
  22.5388030  60.1911810  45.3592020  22.2345100  61.0703790  45.5842380
  23.4934490  60.2511600  45.3949460  21.0669820  64.3972800  35.9558870
  20.2932080  63.8570420  35.7957590  21.7964450  63.8779410  35.6176630
  31.8257800  63.3938160  41.7485260  32.5456920  63.8893450  41.3581370
  31.6239620  62.7156050  41.1039130  27.2076600  63.4647220  47.6354260
  27.1413910  62.5442890  47.3811850  26.5781740  63.5622660  48.3498900
  30.0016130  59.1595770  34.1876810  30.8895750  59.4713000  34.0128150
  29.9721220  58.2868020  33.7957390  21.1107220  64.0653180  39.5937680
  21.6285890  63.2621440  39.5394570  20.6591240  64.0032320  40.4354510
  18.5951760  61.0314550  46.5063380  18.2366700  61.6968400  47.0936720
  18.3006320  60.1998100  46.8776000  21.7964880  61.4898790  49.3902930
  21.4965020  61.6355970  48.4930750  22.5676120  60.9304080  49.2976320
  32.2730400  60.4707610  33.6556670  32.1894120  60.9021830  32.8053110
  32.9924590  60.9305960  34.0883490  33.3504540  62.9275130  46.7326640
  32.6252730  63.5203910  46.5356030  33.8780000  62.9198670  45.9340010
  28.8804130  64.6535300  40.2310490  29.2327950  64.0563430  39.5711860
  27.9966460  64.3279530  40.4018740  17.1059810  61.0305810  33.1297980
  17.9754660  61.3130610  33.4133900  16.6150130  61.8441680  33.0146790
  24.2694620  62.4179020  37.2506260  24.7257400  63.2284270  37.4766450
  23.9182830  62.1002160  38.0824750  20.1706400  52.7616670  37.7228780
  20.0421030  52.7534570  38.6713700  19.3468420  53.0999760  37.3719790
  17.1700330  54.5207790  47.1835480  16.4558850  54.7204710  47.7888090
  17.5895370  53.7447360  47.5550280  31.2731280  64.1338270  34.5829310
  30.9852980  64.5950960  35.3707190  32.0683450  63.6736040  34.8513530
  19.0906320  62.8479280  35.2580040  18.4834270  63.5878180  35.2675340
  19.5655670  62.9378640  34.4318240  28.6639110  57.0130100  44.9336930
  29.0319930  56.1925310  45.2616500  27.8037310  57.0731990  45.3492580
  32.0301140  55.9687040  35.7424490  31.4014300  56.0732710  35.0282720
  31.5353060  56.1883820  36.5318370  23.9985170  58.2472990  37.1582370
  23.2901320  58.7159330  37.5995980  24.2829650  57.5895000  37.7927560
  25.6241100  59.6669690  45.1574900  26.1226350  60.1415510  45.8226750
  25.7664050  58.7433210  45.3644930  22.2020190  56.5558070  34.5333080
  23.0510720  56.9928220  34.4673270  21.8351460  56.8678330  35.3605140
  32.8307960  55.8837650  46.0003290  32.3281560  56.6243050  46.3397100
  33.6464620  56.2721650  45.6840080  31.1229970  61.1270830  39.4464650
  30.1820110  61.1421060  39.6212340  31.4374040  60.3406790  39.8924950
  21.1011610  62.8090430  33.0068610  21.8674880  62.6971790  33.5694040
  21.1786300  62.1128400  32.3545380  19.7958370  60.2415500  33.6901500
  19.8761960  59.2943010  33.8018900  20.6878120  60.5722380  33.7962160
  17.3229170  62.0630420  48.9257670  17.8268190  61.4837700  49.4973900
  16.5836590  62.3470650  49.4634040  24.2252790  64.7844610  32.4803960
  24.1203430  64.1696960  33.2065340  24.0577010  64.2610500  31.6966970
  24.3767110  63.4701410  48.4593190  23.6112780  64.0386410  48.3747860
  24.5583070  63.1777620  47.5661420  27.4655520  63.8464640  33.0845950
  26.9165620  64.2933940  33.7288690  28.0874780  63.3413890  33.6083620
  19.3552250  60.2060010  49.8207740  19.3957590  59.9073880  50.7292970
  20.2097750  60.6067620  49.6615260  23.1330640  62.8055560  34.9811250
  23.5547060  62.6395430  35.8242640  23.2581480  61.9955790  34.4866390
  21.2958060  58.7852110  47.7882230  20.7654520  58.2943060  47.1605570
  21.9646130  59.2136310  47.2540160  25.6458280  61.8293170  32.2288350
  26.1663940  61.1142190  31.8629500  26.2926680  62.4679040  32.5288860
  30.1936120  63.2521570  47.5523420  30.6077140  63.4066650  48.4013840
  29.2587120  63.3776790  47.7149200  30.6658290  60.5917730  49.5562570
  31.2479060  59.8370050  49.4683050  30.8420060  61.1225170  48.7794050
  21.7830360  55.7514480  47.8679520  21.6887230  55.1335230  47.1430390
  21.2027750  56.4780770  47.6409430  24.5491800  54.3087720  44.9006910
  24.1009100  54.3311980  44.0552460  23.9157000  53.9106740  45.4977210
  24.9551350  63.2042050  45.5219350  25.3739460  64.0474780  45.3495590
  24.0359980  63.3414090  45.2926130  27.2915250  60.9358230  46.9057190
  27.4111460  60.3399370  47.6452030  28.1509250  60.9727920  46.4858490
  29.6303150  61.4895420  45.4819700  29.1038370  62.0138040  44.8784840
  29.9734490  62.1222810  46.1129430  22.0289540  58.8788790  31.9269410
  21.8278600  58.0156150  32.2882750  21.8581590  58.7922150  30.9891010
  24.0584020  57.4779580  48.1633010  24.6483710  57.1695430  48.8510830
  23.2404260  57.0059330  48.3192910  28.8777450  57.0945390  48.3966030
  28.1892970  56.4326930  48.3316020  29.5983470  56.6483660  48.8414490
  20.8272340  55.9789410  31.9147290  21.1298240  55.9856840  31.0066440
  21.5666930  55.6287270  32.4114950  24.0457270  54.9224030  32.9003490
  23.6979270  54.2448020  32.3205940  24.2470040  54.4613540  33.7146880
  33.8858570  62.9273750  35.0660200  34.6477480  63.4970400  35.1719890
  33.9012940  62.3600950  35.8368510  17.3862910  61.4511680  39.2967860
  16.7311750  61.1823320  38.6527560  18.2240860  61.3416160  38.8469840
  34.8918540  63.7823850  39.9102130  35.2627370  62.9991170  39.5038100
  35.5320470  64.4712950  39.7319430  33.9377740  63.2208120  32.2232720
  34.2126580  64.1287000  32.0951940  33.7488480  63.1570650  33.1594710
  33.8343080  61.1577110  37.2162150  33.4586680  60.3905040  36.7843440
  33.1046200  61.5399810  37.7037080  18.4238840  61.8364250  43.8371200
  18.7911880  61.7491650  44.7167220  17.8549660  61.0730800  43.7378060
  33.2242700  60.3048630  46.8501670  32.9928790  60.0761380  45.9499620
  33.4847250  61.2248180  46.8046560  17.9754840  58.7473340  47.7429620
  17.0810890  58.7140100  48.0823330  18.5152390  58.9460130  48.5080870
  31.6630770  55.5305060  49.6281370  32.5400950  55.5388460  50.0115370
  31.6751610  54.7935900  49.0173720  16.6000990  58.6610610  35.2393190
  15.6965070  58.9240810  35.0644850  17.0841610  58.9321780  34.4593150
  33.1094040  59.3834600  40.5169390  33.6331520  58.8897250  39.8859560
  33.6953460  59.5184960  41.2616960  33.2883760  59.4674470  44.0388940
  32.3386470  59.4338010  44.1533930  33.4696770  60.3774580  43.8038710
  19.1428200  57.7176150  33.1487570  19.8519900  57.2959370  32.6634850
  18.4268140  57.7851380  32.5170920  18.7902360  53.7715480  32.1890220
  19.5130490  54.3124420  32.5071440  19.0626880  53.4978900  31.3131760
  32.5994010  58.6407950  36.4561800  33.0953130  58.4078820  37.2410680
  32.4010080  57.8019790  36.0399440  18.4794550  53.0221670  42.0912840
  19.1270740  52.4719050  41.6508000  18.8996390  53.2764820  42.9128650
  34.0281170  57.2768900  38.9899480  33.9180450  57.1224940  39.9281750
  34.7888760  56.7489840  38.7474890  32.3746890  53.2163030  45.4482480
  33.0119110  53.8297170  45.8141670  32.5221780  53.2523690  44.5031710
  34.9171440  55.1076820  32.2305620  35.8420750  54.9758000  32.0223910
  34.8947230  55.1869640  33.1842070  34.9909930  55.8787480  34.8562330
  34.1961430  55.8132600  35.3855240  35.1953210  56.8138120  34.8447680
  18.2326550  53.1777340  44.8338160  17.8841370  53.6341160  45.5996340
  17.9014250  52.2834470  44.9160590  25.7451370  54.3689220  48.3557580
  25.6840260  54.9611050  49.1052990  26.6851750  54.2615180  48.2107840
  28.3825930  54.0259280  47.9949870  28.9966340  54.3438570  47.3330950
  28.9275490  53.5407870  48.6145730  18.9047190  52.7053540  48.1088930
  19.4530180  52.5241590  47.3455040  18.9702500  51.9147650  48.6445240
  29.1233970  52.5891420  44.3219160  28.2493810  52.9226530  44.1192090
  29.0144720  52.1164600  45.1471030  30.0305950  54.7962290  45.7060880
  29.7019310  53.9814050  45.3262610  30.9788250  54.7532100  45.5826570
  26.8708790  53.5061260  43.2612070  26.0880580  53.9806760  43.5408830
  26.5771720  52.6016090  43.1525250  31.4229860  54.2084360  41.3061160
  31.8637950  54.1529460  40.4582760  31.1537450  55.1242370  41.3771340
  33.2868430  53.8399600  39.3169980  33.2256830  52.8960820  39.1701000
  34.0660460  53.9479690  39.8623440  18.2149200  53.8108740  35.7825790
  18.9728560  53.9237620  35.2089820  17.7526370  54.6477940  35.7369220
  24.7563010  55.9248010  38.7728100  23.9437520  55.5504900  38.4323980
  25.2604650  55.1693090  39.0749290  20.5874350  54.3372790  34.3227760
  21.1167110  53.5502590  34.1935710  21.2202670  55.0163980  34.5563290
  22.7812190  54.0747930  37.3773150  22.1514930  53.3735240  37.5443280
  22.2417330  54.8352060  37.1606310  22.9067750  53.3531910  49.8125640
  22.6252020  53.8565510  49.0486460  23.2887450  52.5553660  49.4467770
  29.5083210  52.7685490  50.3906110  29.3948660  53.0880100  51.2857630
  30.3252950  53.1698000  50.0943390  28.4141360  60.7877960  20.7540850
  28.3335410  59.8732570  20.4832560  28.0005780  61.2845030  20.0480560
  26.5459400  62.5656980  22.6350120  25.7701500  62.0857420  22.9248690
  27.1972330  61.8862630  22.4606280  20.5625230  62.8776790  23.5125880
  19.7310110  62.6225500  23.9122390  21.1706210  62.9487560  24.2483800
  18.9717180  57.8378680  17.2968270  18.0833880  58.1794650  17.1948150
  19.2558370  57.6379000  16.4049100  16.9350190  60.4384330  23.1807970
  17.5066300  59.6706530  23.1811610  16.9351730  60.7373090  22.2714580
  18.1775060  55.8468690  24.9676900  17.9977900  54.9494440  25.2479660
  17.7755140  56.3940560  25.6423850  27.0173560  58.0484550  22.8689210
  27.3938380  57.1756430  22.7562880  26.9193070  58.3843250  21.9779650
  21.1478570  56.4210180  18.3306650  21.2545320  57.3213910  18.6375410
  20.2370930  56.3728150  18.0401300  30.7997680  55.5434990  19.8017550
  31.6207300  55.0531560  19.8443030  30.8331760  56.1332650  20.5549390
  18.7961730  58.3429190  23.5759240  19.4771840  58.6067560  24.1946640
  18.4809780  57.5030060  23.9097250  22.9886300  59.3896550  22.6631830
  23.4964520  59.8877520  23.3036850  23.5199540  58.6131750  22.4871190
  35.0897230  57.5601740  26.3661180  34.3849400  57.9483450  25.8476290
  35.3555150  58.2552030  26.9682110  21.2722400  54.0295110  26.9295250
  21.2740840  54.5467500  26.1241150  20.4426710  53.5525290  26.9065180
  27.6593490  64.1414420  18.4285150  27.0410760  64.6063870  17.8647870
  28.1716740  64.8341900  18.8454660  22.5225250  63.6690290  25.1068750
  22.1894630  64.2959210  25.7489820  22.6991930  64.1952170  24.3270420
  31.0359160  57.4835370  22.5745090  30.3314730  57.7720260  23.1548200
  31.3971320  58.2935480  22.2144650  20.9537730  55.7405070  24.9365700
  21.2954540  56.5847120  24.6419570  20.0153540  55.8888810  25.0531040
  34.1046080  56.9290160  22.9654300  33.1570990  56.9629140  23.0969730
  34.4296070  57.7429110  23.3503660  24.6365620  53.2287340  21.2610290
  24.9440600  52.6734230  20.5445790  23.7066320  53.3631800  21.0783280
  29.5866120  63.8484470  24.8800360  30.0034910  63.6344580  24.0453820
  30.3105940  64.1057260  25.4508980  27.0246380  61.2936170  17.9970410
  26.0975660  61.2273550  18.2258880  27.1771200  62.2316300  17.8825650
  27.0115460  57.5653170  14.9937570  26.0719130  57.7267130  15.0790030
  27.3298720  58.2838850  14.4473560  33.5328220  62.2471690  24.9716600
  32.7046850  62.3164780  24.4966730  34.1278700  62.8326000  24.5032430
  31.0543670  62.8556470  18.5005660  30.4356090  62.5176020  17.8531960
  31.0368120  62.2116230  19.2084850  30.4970230  59.0341010  25.9171470
  30.0841410  59.8594720  26.1711460  29.7646180  58.4486050  25.7247830
  22.6303020  61.8200910  20.7790140  22.2260020  61.1078160  20.2836040
  22.7166140  61.4754150  21.6678180  21.3431640  58.5944120  24.5589180
  21.8946230  58.7039460  23.7842430  21.8575150  58.9681720  25.2744410
  29.2308370  62.0943280  15.5078410  29.6701650  61.2565710  15.3616230
  29.9436790  62.7272680  15.5942550  21.0174370  62.1163480  28.1694520
  20.8782140  62.9886280  28.5381920  20.1355730  61.7736290  28.0242460
  32.8125510  53.3486090  13.8219450  32.4998170  53.4412920  14.7218520
  33.5737980  53.9267120  13.7716880  19.3307650  60.7145890  18.2796790
  19.2105250  61.4407980  17.6678060  19.0208540  59.9448800  17.8024700
  16.9693020  63.8861030  24.0865430  17.0473440  64.0209800  23.1421150
  17.5834700  63.1776920  24.2793550  34.0226800  58.0857590  29.7993590
  33.4071070  58.5937260  29.2709050  33.7023220  57.1855920  29.7419530
  17.0252540  64.9275200  26.6259890  17.1883580  64.4580560  25.8079260
  17.4904990  64.4198760  27.2908730  21.7971310  54.0580960  21.6620460
  21.3539460  54.8390500  21.3304980  22.3556300  54.3810850  22.3691400
  26.0841120  56.9249480  27.2655780  25.6220490  57.1332500  28.0775720
  25.6819230  56.1108830  26.9626450  31.0845630  58.1458430  28.3952440
  30.2339220  57.8464180  28.7161510  30.9247420  58.3900440  27.4836260
  28.1795340  59.6460180  30.4951230  28.5048750  58.8123930  30.1553460
  28.9675670  60.1688700  30.6429560  24.9130130  53.6791660  16.5426290
  24.2884310  53.6751530  17.2679600  24.8260250  52.8122620  16.1462260
  23.8347210  54.6028290  23.5210060  24.1319540  55.5091120  23.4402080
  24.3832770  54.1147070  22.9069630  21.5885530  59.1814530  19.3901710
  21.3626450  58.9651700  20.2948330  20.8078060  59.6142990  19.0447680
  28.8183290  59.1877900  17.9892360  28.2192180  59.9113700  17.8055980
  29.3662900  59.1254680  17.2068810  24.0284740  60.0800110  30.0561980
  23.9328340  59.1394840  29.9062380  24.8716720  60.3015180  29.6610050
  27.4248160  57.8241440  20.0195640  27.8177730  58.1413640  19.2064330
  27.7865010  56.9453320  20.1340160  19.1595280  56.4913780  28.2095760
  18.7658670  57.3388990  28.4168540  18.4713680  55.8540150  28.4004400
  25.7340330  56.5748750  31.2792500  25.0438650  56.3820950  31.9138590
  26.4772630  56.8583390  31.8116800  16.4612330  54.4142240  22.2425840
  16.1725380  54.9845100  22.9550820  17.2058090  53.9346690  22.6057070
  16.6482560  58.3562360  13.4528560  16.5657230  59.2993120  13.5943550
  16.2965620  58.2137270  12.5740910  28.0103300  60.4147190  24.1146420
  27.2784420  60.9234000  24.4636520  27.6127640  59.5977170  23.8135200
  24.4480690  57.0901390  22.5198910  24.4516750  56.6491340  21.6703450
  25.3431810  57.4118720  22.6270730  20.2983070  56.9727880  21.4793120
  19.9583120  57.4503110  22.2360170  19.5360390  56.5193000  21.1194220
  24.5100840  58.0913470  15.5105670  24.6313660  58.0499950  16.4591490
  24.1249350  58.9537620  15.3552400  28.4729210  55.8680870  23.5269360
  28.4901950  56.3189520  24.3711210  28.2244790  54.9686510  23.7402800
  23.5222340  60.4014610  14.9088970  22.9539240  59.9532860  14.2824880
  24.2311340  60.7607390  14.3754120  31.8999960  53.2813050  29.3655740
  32.2245730  52.5502710  29.8913720  31.9356470  52.9626690  28.4636730
  18.5991520  64.3026630  28.7855700  18.2146310  63.6620300  29.3838660
  18.9103710  65.0062750  29.3550430  24.7488660  61.1503170  24.2664320
  25.1158790  60.6761740  25.0125660  24.5593720  62.0244740  24.6072660
  17.6129150  55.8946860  20.3957790  17.3276070  55.5302530  21.2336410
  17.5508010  55.1627320  19.7820930  22.5388030  60.1911810  26.5848530
  22.2345100  61.0703790  26.8098890  23.4934490  60.2511600  26.6205970
  21.0669820  64.3972800  17.1815380  20.2932080  63.8570420  17.0214100
  21.7964450  63.8779410  16.8433140  31.8257800  63.3938160  22.9741770
  32.5456920  63.8893450  22.5837880  31.6239620  62.7156050  22.3295640
  27.2867740  54.7876120  17.1171160  26.4732350  54.2889290  17.0416470
  27.0929690  55.6274370  16.7007510  27.2076600  63.4647220  28.8610770
  27.1413910  62.5442890  28.6068360  26.5781740  63.5622660  29.5755410
  30.0016130  59.1595770  15.4133320  30.8895750  59.4713000  15.2384660
  29.9721220  58.2868020  15.0213900  21.1107220  64.0653180  20.8194190
  21.6285890  63.2621440  20.7651080  20.6591240  64.0032320  21.6611020
  18.5951760  61.0314550  27.7319890  18.2366700  61.6968400  28.3193230
  18.3006320  60.1998100  28.1032510  21.7964880  61.4898790  30.6159440
  21.4965020  61.6355970  29.7187260  22.5676120  60.9304080  30.5232830
  32.2730400  60.4707610  14.8813180  32.1894120  60.9021830  14.0309620
  32.9924590  60.9305960  15.3140000  33.3504540  62.9275130  27.9583150
  32.6252730  63.5203910  27.7612540  33.8780000  62.9198670  27.1596520
  28.8804130  64.6535300  21.4567000  29.2327950  64.0563430  20.7968370
  27.9966460  64.3279530  21.6275250  17.1059810  61.0305810  14.3554490
  17.9754660  61.3130610  14.6390410  16.6150130  61.8441680  14.2403300
  24.2694620  62.4179020  18.4762770  24.7257400  63.2284270  18.7022960
  23.9182830  62.1002160  19.3081260  20.1706400  52.7616670  18.9485290
  20.0421030  52.7534570  19.8970210  19.3468420  53.0999760  18.5976300
  17.1700330  54.5207790  28.4091990  16.4558850  54.7204710  29.0144600
  17.5895370  53.7447360  28.7806790  31.2731280  64.1338270  15.8085820
  30.9852980  64.5950960  16.5963700  32.0683450  63.6736040  16.0770040
  19.0906320  62.8479280  16.4836550  18.4834270  63.5878180  16.4931850
  19.5655670  62.9378640  15.6574750  28.6639110  57.0130100  26.1593440
  29.0319930  56.1925310  26.4873010  27.8037310  57.0731990  26.5749090
  32.0301140  55.9687040  16.9681000  31.4014300  56.0732710  16.2539230
  31.5353060  56.1883820  17.7574880  23.9985170  58.2472990  18.3838880
  23.2901320  58.7159330  18.8252490  24.2829650  57.5895000  19.0184070
  25.6241100  59.6669690  26.3831410  26.1226350  60.1415510  27.0483260
  25.7664050  58.7433210  26.5901440  28.0300600  54.9723650  19.8234670
  27.9068380  54.9909780  18.8744180  28.9785160  55.0202590  19.9433070
  22.2020190  56.5558070  15.7589590  23.0510720  56.9928220  15.6929780
  21.8351460  56.8678330  16.5861650  32.8307960  55.8837650  27.2259800
  32.3281560  56.6243050  27.5653610  33.6464620  56.2721650  26.9096590
  31.1229970  61.1270830  20.6721160  30.1820110  61.1421060  20.8468850
  31.4374040  60.3406790  21.1181460  21.1011610  62.8090430  14.2325120
  21.8674880  62.6971790  14.7950550  21.1786300  62.1128400  13.5801890
  19.7958370  60.2415500  14.9158010  19.8761960  59.2943010  15.0275410
  20.6878120  60.5722380  15.0218670  17.3229170  62.0630420  30.1514180
  17.8268190  61.4837700  30.7230410  16.5836590  62.3470650  30.6890550
  24.2252790  64.7844610  13.7060470  24.1203430  64.1696960  14.4321850
  24.0577010  64.2610500  12.9223480  24.3767110  63.4701410  29.6849700
  23.6112780  64.0386410  29.6004370  24.5583070  63.1777620  28.7917930
  27.4655520  63.8464640  14.3102460  26.9165620  64.2933940  14.9545200
  28.0874780  63.3413890  14.8340130  19.3552250  60.2060010  31.0464250
  19.3957590  59.9073880  31.9549480  20.2097750  60.6067620  30.8871770
  23.1330640  62.8055560  16.2067760  23.5547060  62.6395430  17.0499150
  23.2581480  61.9955790  15.7122900  21.2958060  58.7852110  29.0138740
  20.7654520  58.2943060  28.3862080  21.9646130  59.2136310  28.4796670
  25.6458280  61.8293170  13.4544860  26.1663940  61.1142190  13.0886010
  26.2926680  62.4679040  13.7545370  30.1936120  63.2521570  28.7779930
  30.6077140  63.4066650  29.6270350  29.2587120  63.3776790  28.9405710
  30.6658290  60.5917730  30.7819080  31.2479060  59.8370050  30.6939560
  30.8420060  61.1225170  30.0050560  21.7830360  55.7514480  29.0936030
  21.6887230  55.1335230  28.3686900  21.2027750  56.4780770  28.8665940
  24.5491800  54.3087720  26.1263420  24.1009100  54.3311980  25.2808970
  23.9157000  53.9106740  26.7233720  24.9551350  63.2042050  26.7475860
  25.3739460  64.0474780  26.5752100  24.0359980  63.3414090  26.5182640
  27.2915250  60.9358230  28.1313700  27.4111460  60.3399370  28.8708540
  28.1509250  60.9727920  27.7115000  29.6303150  61.4895420  26.7076210
  29.1038370  62.0138040  26.1041350  29.9734490  62.1222810  27.3385940
  22.0289540  58.8788790  13.1525920  21.8278600  58.0156150  13.5139260
  21.8581590  58.7922150  12.2147520  24.0584020  57.4779580  29.3889520
  24.6483710  57.1695430  30.0767340  23.2404260  57.0059330  29.5449420
  28.8777450  57.0945390  29.6222540  28.1892970  56.4326930  29.5572530
  29.5983470  56.6483660  30.0671000  29.5077850  53.6897020  15.6812800
  29.7880140  52.8464920  16.0372220  28.7343580  53.9220130  16.1951550
  20.8272340  55.9789410  13.1403800  21.1298240  55.9856840  12.2322950
  21.5666930  55.6287270  13.6371460  24.0457270  54.9224030  14.1260000
  23.6979270  54.2448020  13.5462450  24.2470040  54.4613540  14.9403390
  33.8858570  62.9273750  16.2916710  34.6477480  63.4970400  16.3976400
  33.9012940  62.3600950  17.0625020  17.3862910  61.4511680  20.5224370
  16.7311750  61.1823320  19.8784070  18.2240860  61.3416160  20.0726350
  34.8918540  63.7823850  21.1358640  35.2627370  62.9991170  20.7294610
  35.5320470  64.4712950  20.9575940  33.9377740  63.2208120  13.4489230
  34.2126580  64.1287000  13.3208450  33.7488480  63.1570650  14.3851220
  30.3353350  56.2452970  14.7442860  30.7538230  56.0583950  13.9039520
  30.0289410  55.3932020  15.0545790  33.8343080  61.1577110  18.4418660
  33.4586680  60.3905040  18.0099950  33.1046200  61.5399810  18.9293590
  18.4238840  61.8364250  25.0627710  18.7911880  61.7491650  25.9423730
  17.8549660  61.0730800  24.9634570  33.2242700  60.3048630  28.0758180
  32.9928790  60.0761380  27.1756130  33.4847250  61.2248180  28.0303070
  17.9754840  58.7473340  28.9686130  17.0810890  58.7140100  29.3079840
  18.5152390  58.9460130  29.7337380  31.6630770  55.5305060  30.8537880
  32.5400950  55.5388460  31.2371880  31.6751610  54.7935900  30.2430230
  16.6000990  58.6610610  16.4649700  15.6965070  58.9240810  16.2901360
  17.0841610  58.9321780  15.6849660  33.1094040  59.3834600  21.7425900
  33.6331520  58.8897250  21.1116070  33.6953460  59.5184960  22.4873470
  33.2883760  59.4674470  25.2645450  32.3386470  59.4338010  25.3790440
  33.4696770  60.3774580  25.0295220  19.1428200  57.7176150  14.3744080
  19.8519900  57.2959370  13.8891360  18.4268140  57.7851380  13.7427430
  18.7902360  53.7715480  13.4146730  19.5130490  54.3124420  13.7327950
  19.0626880  53.4978900  12.5388270  32.5994010  58.6407950  17.6818310
  33.0953130  58.4078820  18.4667190  32.4010080  57.8019790  17.2655950
  18.4794550  53.0221670  23.3169350  19.1270740  52.4719050  22.8764510
  18.8996390  53.2764820  24.1385160  34.0281170  57.2768900  20.2155990
  33.9180450  57.1224940  21.1538260  34.7888760  56.7489840  19.9731400
  32.3746890  53.2163030  26.6738990  33.0119110  53.8297170  27.0398180
  32.5221780  53.2523690  25.7288220  34.9171440  55.1076820  13.4562130
  35.8420750  54.9758000  13.2480420  34.8947230  55.1869640  14.4098580
  34.9909930  55.8787480  16.0818840  34.1961430  55.8132600  16.6111750
  35.1953210  56.8138120  16.0704190  18.2326550  53.1777340  26.0594670
  17.8841370  53.6341160  26.8252850  17.9014250  52.2834470  26.1417100
  25.7451370  54.3689220  29.5814090  25.6840260  54.9611050  30.3309500
  26.6851750  54.2615180  29.4364350  28.3825930  54.0259280  29.2206380
  28.9966340  54.3438570  28.5587460  28.9275490  53.5407870  29.8402240
  18.9047190  52.7053540  29.3345440  19.4530180  52.5241590  28.5711550
  18.9702500  51.9147650  29.8701750  30.0305950  54.7962290  26.9317390
  29.7019310  53.9814050  26.5519120  30.9788250  54.7532100  26.8083080
  26.8708790  53.5061260  24.4868580  26.0880580  53.9806760  24.7665340
  26.5771720  52.6016090  24.3781760  31.4229860  54.2084360  22.5317670
  31.8637950  54.1529460  21.6839270  31.1537450  55.1242370  22.6027850
  33.2868430  53.8399600  20.5426490  33.2256830  52.8960820  20.3957510
  34.0660460  53.9479690  21.0879950  18.2149200  53.8108740  17.0082300
  18.9728560  53.9237620  16.4346330  17.7526370  54.6477940  16.9625730
  24.7563010  55.9248010  19.9984610  23.9437520  55.5504900  19.6580490
  25.2604650  55.1693090  20.3005800  29.2587990  52.5890460  21.2367680
  29.8617360  53.1610670  21.7116200  28.5180980  53.1529900  21.0141580
  32.4022590  52.9912020  16.5107960  32.5973220  53.8895470  16.7775390
  31.6152460  52.7599100  17.0040910  20.5874350  54.3372790  15.5484270
  21.1167110  53.5502590  15.4192220  21.2202670  55.0163980  15.7819800
  22.7812190  54.0747930  18.6029660  22.1514930  53.3735240  18.7699790
  22.2417330  54.8352060  18.3862820  22.9067750  53.3531910  31.0382150
  22.6252020  53.8565510  30.2742970  23.2887450  52.5553660  30.6724280
  26.5459400  62.5656980   3.8606630  25.7701500  62.0857420   4.1505200
  27.1972330  61.8862630   3.6862790  20.5625230  62.8776790   4.7382390
  19.7310110  62.6225500   5.1378900  21.1706210  62.9487560   5.4740310
  16.9350190  60.4384330   4.4064480  17.5066300  59.6706530   4.4068120
  16.9351730  60.7373090   3.4971090  18.1775060  55.8468690   6.1933410
  17.9977900  54.9494440   6.4736170  17.7755140  56.3940560   6.8680360
  27.0173560  58.0484550   4.0945720  27.3938380  57.1756430   3.9819390
  26.9193070  58.3843250   3.2036160  18.7961730  58.3429190   4.8015750
  19.4771840  58.6067560   5.4203150  18.4809780  57.5030060   5.1353760
  22.9886300  59.3896550   3.8888340  23.4964520  59.8877520   4.5293360
  23.5199540  58.6131750   3.7127700  35.0897230  57.5601740   7.5917690
  34.3849400  57.9483450   7.0732800  35.3555150  58.2552030   8.1938620
  21.2722400  54.0295110   8.1551760  21.2740840  54.5467500   7.3497660
  20.4426710  53.5525290   8.1321690  22.5225250  63.6690290   6.3325260
  22.1894630  64.2959210   6.9746330  22.6991930  64.1952170   5.5526930
  31.0359160  57.4835370   3.8001600  30.3314730  57.7720260   4.3804710
  31.3971320  58.2935480   3.4401160  20.9537730  55.7405070   6.1622210
  21.2954540  56.5847120   5.8676080  20.0153540  55.8888810   6.2787550
  34.1046080  56.9290160   4.1910810  33.1570990  56.9629140   4.3226240
  34.4296070  57.7429110   4.5760170  24.6365620  53.2287340   2.4866800
  24.9440600  52.6734230   1.7702300  23.7066320  53.3631800   2.3039790
  29.5866120  63.8484470   6.1056870  30.0034910  63.6344580   5.2710330
  30.3105940  64.1057260   6.6765490  33.5328220  62.2471690   6.1973110
  32.7046850  62.3164780   5.7223240  34.1278700  62.8326000   5.7288940
  30.4970230  59.0341010   7.1427980  30.0841410  59.8594720   7.3967970
  29.7646180  58.4486050   6.9504340  21.3431640  58.5944120   5.7845690
  21.8946230  58.7039460   5.0098940  21.8575150  58.9681720   6.5000920
  21.0174370  62.1163480   9.3951030  20.8782140  62.9886280   9.7638430
  20.1355730  61.7736290   9.2498970  16.9693020  63.8861030   5.3121940
  17.0473440  64.0209800   4.3677660  17.5834700  63.1776920   5.5050060
  34.0226800  58.0857590  11.0250100  33.4071070  58.5937260  10.4965560
  33.7023220  57.1855920  10.9676040  17.0252540  64.9275200   7.8516400
  17.1883580  64.4580560   7.0335770  17.4904990  64.4198760   8.5165240
  21.7971310  54.0580960   2.8876970  21.3539460  54.8390500   2.5561490
  22.3556300  54.3810850   3.5947910  26.0841120  56.9249480   8.4912290
  25.6220490  57.1332500   9.3032230  25.6819230  56.1108830   8.1882960
  31.0845630  58.1458430   9.6208950  30.2339220  57.8464180   9.9418020
  30.9247420  58.3900440   8.7092770  28.1795340  59.6460180  11.7207740
  28.5048750  58.8123930  11.3809970  28.9675670  60.1688700  11.8686070
  23.8347210  54.6028290   4.7466570  24.1319540  55.5091120   4.6658590
  24.3832770  54.1147070   4.1326140  24.0284740  60.0800110  11.2818490
  23.9328340  59.1394840  11.1318890  24.8716720  60.3015180  10.8866560
  19.1595280  56.4913780   9.4352270  18.7658670  57.3388990   9.6425050
  18.4713680  55.8540150   9.6260910  25.7340330  56.5748750  12.5049010
  25.0438650  56.3820950  13.1395100  26.4772630  56.8583390  13.0373310
  16.4612330  54.4142240   3.4682350  16.1725380  54.9845100   4.1807330
  17.2058090  53.9346690   3.8313580  28.0103300  60.4147190   5.3402930
  27.2784420  60.9234000   5.6893030  27.6127640  59.5977170   5.0391710
  24.4480690  57.0901390   3.7455420  24.4516750  56.6491340   2.8959960
  25.3431810  57.4118720   3.8527240  20.2983070  56.9727880   2.7049630
  19.9583120  57.4503110   3.4616680  19.5360390  56.5193000   2.3450730
  28.4729210  55.8680870   4.7525870  28.4901950  56.3189520   5.5967720
  28.2244790  54.9686510   4.9659310  31.8999960  53.2813050  10.5912250
  32.2245730  52.5502710  11.1170230  31.9356470  52.9626690   9.6893240
  18.5991520  64.3026630  10.0112210  18.2146310  63.6620300  10.6095170
  18.9103710  65.0062750  10.5806940  24.7488660  61.1503170   5.4920830
  25.1158790  60.6761740   6.2382170  24.5593720  62.0244740   5.8329170
  22.5388030  60.1911810   7.8105040  22.2345100  61.0703790   8.0355400
  23.4934490  60.2511600   7.8462480  31.8257800  63.3938160   4.1998280
  32.5456920  63.8893450   3.8094390  31.6239620  62.7156050   3.5552150
  27.2076600  63.4647220  10.0867280  27.1413910  62.5442890   9.8324870
  26.5781740  63.5622660  10.8011920  21.1107220  64.0653180   2.0450700
  21.6285890  63.2621440   1.9907590  20.6591240  64.0032320   2.8867530
  18.5951760  61.0314550   8.9576400  18.2366700  61.6968400   9.5449740
  18.3006320  60.1998100   9.3289020  21.7964880  61.4898790  11.8415950
  21.4965020  61.6355970  10.9443770  22.5676120  60.9304080  11.7489340
  33.3504540  62.9275130   9.1839660  32.6252730  63.5203910   8.9869050
  33.8780000  62.9198670   8.3853030  28.8804130  64.6535300   2.6823510
  29.2327950  64.0563430   2.0224880  27.9966460  64.3279530   2.8531760
  17.1700330  54.5207790   9.6348500  16.4558850  54.7204710  10.2401110
  17.5895370  53.7447360  10.0063300  28.6639110  57.0130100   7.3849950
  29.0319930  56.1925310   7.7129520  27.8037310  57.0731990   7.8005600
  25.6241100  59.6669690   7.6087920  26.1226350  60.1415510   8.2739770
  25.7664050  58.7433210   7.8157950  32.8307960  55.8837650   8.4516310
  32.3281560  56.6243050   8.7910120  33.6464620  56.2721650   8.1353100
  31.1229970  61.1270830   1.8977670  30.1820110  61.1421060   2.0725360
  31.4374040  60.3406790   2.3437970  17.3229170  62.0630420  11.3770690
  17.8268190  61.4837700  11.9486920  16.5836590  62.3470650  11.9147060
  24.3767110  63.4701410  10.9106210  23.6112780  64.0386410  10.8260880
  24.5583070  63.1777620  10.0174440  19.3552250  60.2060010  12.2720760
  19.3957590  59.9073880  13.1805990  20.2097750  60.6067620  12.1128280
  21.2958060  58.7852110  10.2395250  20.7654520  58.2943060   9.6118590
  21.9646130  59.2136310   9.7053180  30.1936120  63.2521570  10.0036440
  30.6077140  63.4066650  10.8526860  29.2587120  63.3776790  10.1662220
  30.6658290  60.5917730  12.0075590  31.2479060  59.8370050  11.9196070
  30.8420060  61.1225170  11.2307070  21.7830360  55.7514480  10.3192540
  21.6887230  55.1335230   9.5943410  21.2027750  56.4780770  10.0922450
  24.5491800  54.3087720   7.3519930  24.1009100  54.3311980   6.5065480
  23.9157000  53.9106740   7.9490230  24.9551350  63.2042050   7.9732370
  25.3739460  64.0474780   7.8008610  24.0359980  63.3414090   7.7439150
  27.2915250  60.9358230   9.3570210  27.4111460  60.3399370  10.0965050
  28.1509250  60.9727920   8.9371510  29.6303150  61.4895420   7.9332720
  29.1038370  62.0138040   7.3297860  29.9734490  62.1222810   8.5642450
  24.0584020  57.4779580  10.6146030  24.6483710  57.1695430  11.3023850
  23.2404260  57.0059330  10.7705930  28.8777450  57.0945390  10.8479050
  28.1892970  56.4326930  10.7829040  29.5983470  56.6483660  11.2927510
  34.8918540  63.7823850   2.3615150  35.2627370  62.9991170   1.9551120
  35.5320470  64.4712950   2.1832450  18.4238840  61.8364250   6.2884220
  18.7911880  61.7491650   7.1680240  17.8549660  61.0730800   6.1891080
  33.2242700  60.3048630   9.3014690  32.9928790  60.0761380   8.4012640
  33.4847250  61.2248180   9.2559580  17.9754840  58.7473340  10.1942640
  17.0810890  58.7140100  10.5336350  18.5152390  58.9460130  10.9593890
  31.6630770  55.5305060  12.0794390  32.5400950  55.5388460  12.4628390
  31.6751610  54.7935900  11.4686740  33.1094040  59.3834600   2.9682410
  33.6331520  58.8897250   2.3372580  33.6953460  59.5184960   3.7129980
  33.2883760  59.4674470   6.4901960  32.3386470  59.4338010   6.6046950
  33.4696770  60.3774580   6.2551730  18.4794550  53.0221670   4.5425860
  19.1270740  52.4719050   4.1021020  18.8996390  53.2764820   5.3641670
  32.3746890  53.2163030   7.8995500  33.0119110  53.8297170   8.2654690
  32.5221780  53.2523690   6.9544730  18.2326550  53.1777340   7.2851180
  17.8841370  53.6341160   8.0509360  17.9014250  52.2834470   7.3673610
  25.7451370  54.3689220  10.8070600  25.6840260  54.9611050  11.5566010
  26.6851750  54.2615180  10.6620860  28.3825930  54.0259280  10.4462890
  28.9966340  54.3438570   9.7843970  28.9275490  53.5407870  11.0658750
  18.9047190  52.7053540  10.5601950  19.4530180  52.5241590   9.7968060
  18.9702500  51.9147650  11.0958260  29.1233970  52.5891420   6.7732180
  28.2493810  52.9226530   6.5705110  29.0144720  52.1164600   7.5984050
  30.0305950  54.7962290   8.1573900  29.7019310  53.9814050   7.7775630
  30.9788250  54.7532100   8.0339590  26.8708790  53.5061260   5.7125090
  26.0880580  53.9806760   5.9921850  26.5771720  52.6016090   5.6038270
  31.4229860  54.2084360   3.7574180  31.8637950  54.1529460   2.9095780
  31.1537450  55.1242370   3.8284360  33.2868430  53.8399600   1.7683000
  33.2256830  52.8960820   1.6214020  34.0660460  53.9479690   2.3136460
  29.2587990  52.5890460   2.4624190  29.8617360  53.1610670   2.9372710
  28.5180980  53.1529900   2.2398090  22.9067750  53.3531910  12.2638660
  22.6252020  53.8565510  11.4999480  23.2887450  52.5553660  11.8980790
  29.5083210  52.7685490  12.8419130  29.3948660  53.0880100  13.7370650
  30.3252950  53.1698000  12.5456410  28.4141360  42.0134470  58.3027830
  28.3335410  41.0989080  58.0319540  28.0005780  42.5101540  57.5967540
  26.5459400  43.7913490  60.1837100  25.7701500  43.3113930  60.4735670
  27.1972330  43.1119140  60.0093260  20.5625230  44.1033300  61.0612860
  19.7310110  43.8482010  61.4609370  21.1706210  44.1744070  61.7970780
  30.5666830  48.1973680  58.9636230  30.1048360  47.4260920  59.2923400
  31.3792380  48.2239750  59.4688680  20.5426490  48.1373390  61.2570880
  20.8454530  47.2471130  61.0781100  21.2870080  48.6943610  61.0293130
  18.9717180  39.0635190  54.8455250  18.0833880  39.4051160  54.7435130
  19.2558370  38.8635510  53.9536080  16.9350190  41.6640840  60.7294950
  17.5066300  40.8963040  60.7298590  16.9351730  41.9629600  59.8201560
  26.7930140  50.4831690  58.5840220  26.1741580  50.9389190  58.0134660
  27.6481920  50.6383150  58.1829920  25.9868390  46.4670680  60.1907260
  25.9176670  45.5260620  60.0296390  26.7488250  46.5572090  60.7629830
  27.0173560  39.2741060  60.4176190  27.3938380  38.4012940  60.3049860
  26.9193070  39.6099760  59.5266630  21.1478570  37.6466690  55.8793630
  21.2545320  38.5470420  56.1862390  20.2370930  37.5984660  55.5888280
  30.7997680  36.7691500  57.3504530  31.6207300  36.2788070  57.3930010
  30.8331760  37.3589160  58.1036370  18.7961730  39.5685700  61.1246220
  19.4771840  39.8324070  61.7433620  18.4809780  38.7286570  61.4584230
  22.9886300  40.6153060  60.2118810  23.4964520  41.1134030  60.8523830
  23.5199540  39.8388260  60.0358170  27.6593490  45.3670930  55.9772130
  27.0410760  45.8320380  55.4134850  28.1716740  46.0598410  56.3941640
  31.0359160  38.7091880  60.1232070  30.3314730  38.9976770  60.7035180
  31.3971320  39.5191990  59.7631630  17.0276690  46.0527460  53.3511760
  16.6504670  46.5414560  52.6196660  17.2849760  46.7252740  53.9818290
  34.1046080  38.1546670  60.5141280  33.1570990  38.1885650  60.6456710
  34.4296070  38.9685620  60.8990640  24.6365620  34.4543850  58.8097270
  24.9440600  33.8990740  58.0932770  23.7066320  34.5888310  58.6270260
  30.1880680  50.1711140  61.1004730  30.2007840  49.7673430  60.2326990
  29.6355900  50.9458430  60.9966160  31.4826100  46.8927360  56.1894900
  31.3722430  45.9501690  56.3144320  31.4794350  47.2543000  57.0757660
  27.0246380  42.5192680  55.5457390  26.0975660  42.4530060  55.7745860
  27.1771200  43.4572810  55.4312630  27.0115460  38.7909680  52.5424550
  26.0719130  38.9523640  52.6277010  27.3298720  39.5095360  51.9960540
  31.0543670  44.0812980  56.0492640  30.4356090  43.7432530  55.4018940
  31.0368120  43.4372740  56.7571830  22.6303020  43.0457420  58.3277120
  22.2260020  42.3334670  57.8323020  22.7166140  42.7010660  59.2165160
  23.0984720  46.7324980  60.4916330  22.8013010  46.1270450  59.8124110
  24.0484540  46.7702290  60.3805690  29.2308370  43.3199790  53.0565390
  29.6701650  42.4822220  52.9103210  29.9436790  43.9529190  53.1429530
  27.3403750  48.2595860  57.0246630  27.7799660  49.0020190  56.6102020
  27.2790640  48.5022430  57.9485590  19.3307650  41.9402400  55.8283770
  19.2105250  42.6664490  55.2165040  19.0208540  41.1705310  55.3511680
  16.9693020  45.1117540  61.6352410  17.0473440  45.2466310  60.6908130
  17.5834700  44.4033430  61.8280530  18.2140650  46.8117730  58.0458590
  17.8068730  46.9532320  57.1912190  19.1053660  46.5277890  57.8429800
  30.0073930  51.2464980  54.3809640  29.8475070  50.9567920  55.2791470
  29.8420640  50.4705110  53.8454870  22.4862310  51.0263510  56.1581260
  22.3104790  50.1099050  55.9449060  21.6318050  51.3850800  56.3979060
  29.7100060  48.7552540  52.9407640  29.0165220  48.7529830  52.2809920
  30.4522920  48.3311860  52.5101810  29.2749990  50.3815250  57.0156130
  29.7306940  49.6004630  57.3294750  29.6142510  51.0922070  57.5597310
  21.7971310  35.2837470  59.2107440  21.3539460  36.0647010  58.8791960
  22.3556300  35.6067360  59.9178380  24.9130130  34.9048170  54.0913270
  24.2884310  34.9008040  54.8166580  24.8260250  34.0379130  53.6949240
  23.8347210  35.8284800  61.0697040  24.1319540  36.7347630  60.9889060
  24.3832770  35.3403580  60.4556610  21.5885530  40.4071040  56.9388690
  21.3626450  40.1908210  57.8435310  20.8078060  40.8399500  56.5934660
  28.8183290  40.4134410  55.5379340  28.2192180  41.1370210  55.3542960
  29.3662900  40.3511190  54.7555790  27.4248160  39.0497950  57.5682620
  27.8177730  39.3670150  56.7551310  27.7865010  38.1709830  57.6827140
  16.4612330  35.6398750  59.7912820  16.1725380  36.2101610  60.5037800
  17.2058090  35.1603200  60.1544050  24.4480690  38.3157900  60.0685890
  24.4516750  37.8747850  59.2190430  25.3431810  38.6375230  60.1757710
  20.2983070  38.1984390  59.0280100  19.9583120  38.6759620  59.7847150
  19.5360390  37.7449510  58.6681200  24.5100840  39.3169980  53.0592650
  24.6313660  39.2756460  54.0078470  24.1249350  40.1794130  52.9039380
  28.4729210  37.0937380  61.0756340  28.4901950  37.5446030  61.9198190
  28.2244790  36.1943020  61.2889780  23.5222340  41.6271120  52.4575950
  22.9539240  41.1789370  51.8311860  24.2311340  41.9863900  51.9241100
  17.6129150  37.1203370  57.9444770  17.3276070  36.7559040  58.7823390
  17.5508010  36.3883830  57.3307910  21.0669820  45.6229310  54.7302360
  20.2932080  45.0826930  54.5701080  21.7964450  45.1035920  54.3920120
  31.8257800  44.6194670  60.5228750  32.5456920  45.1149960  60.1324860
  31.6239620  43.9412560  59.8782620  27.2867740  36.0132630  54.6658140
  26.4732350  35.5145800  54.5903450  27.0929690  36.8530880  54.2494490
  30.0016130  40.3852280  52.9620300  30.8895750  40.6969510  52.7871640
  29.9721220  39.5124530  52.5700880  21.1107220  45.2909690  58.3681170
  21.6285890  44.4877950  58.3138060  20.6591240  45.2288830  59.2098000
  25.9976720  46.5575970  53.6408470  26.3392420  47.3018200  53.1451790
  25.1689430  46.8707090  54.0033300  32.2730400  41.6964120  52.4300160
  32.1894120  42.1278340  51.5796600  32.9924590  42.1562470  52.8626980
  33.3017650  48.5506380  55.1582290  32.6593810  47.8962000  55.4326010
  32.9148310  48.9561470  54.3822960  28.8804130  45.8791810  59.0053980
  29.2327950  45.2819940  58.3455350  27.9966460  45.5536040  59.1762230
  24.9667410  46.6389500  56.4124390  25.6538540  47.1858710  56.7931980
  24.1799830  47.1830230  56.4474000  24.2694620  43.6435530  56.0249750
  24.7257400  44.4540780  56.2509940  23.9182830  43.3258670  56.8568240
  20.1706400  33.9873180  56.4972270  20.0421030  33.9791080  57.4457190
  19.3468420  34.3256270  56.1463280  31.6915030  47.4422840  51.6958640
  31.4652610  46.7253280  52.2883280  31.3011230  47.1935280  50.8580390
  17.4731060  51.4689700  52.4703100  17.8328700  52.0679040  51.8160370
  17.3323400  52.0149590  53.2438130  31.2731280  45.3594780  53.3572800
  30.9852980  45.8207470  54.1450680  32.0683450  44.8992550  53.6257020
  23.4899680  48.8520900  53.2876770  23.4809780  49.5850590  52.6721280
  22.5698040  48.6052480  53.3803730  19.0906320  44.0735790  54.0323530
  18.4834270  44.8134690  54.0418830  19.5655670  44.1635150  53.2061730
  32.0301140  37.1943550  54.5167980  31.4014300  37.2989220  53.8026210
  31.5353060  37.4140330  55.3061860  26.4759280  48.9149140  51.9501960
  26.5771260  48.7113130  51.0203940  25.5761020  48.6607420  52.1549740
  23.9985170  39.4729500  55.9325860  23.2901320  39.9415840  56.3739470
  24.2829650  38.8151510  56.5671050  28.0300600  36.1980160  57.3721650
  27.9068380  36.2166290  56.4231160  28.9785160  36.2459100  57.4920050
  25.1177390  51.4335460  56.6449630  25.3718890  51.3956850  55.7229000
  24.1689870  51.3068790  56.6377880  22.2020190  37.7814580  53.3076570
  23.0510720  38.2184730  53.2416760  21.8351460  38.0934840  54.1348630
  31.1229970  42.3527340  58.2208140  30.1820110  42.3677570  58.3955830
  31.4374040  41.5663300  58.6668440  21.1011610  44.0346940  51.7812100
  21.8674880  43.9228300  52.3437530  21.1786300  43.3384910  51.1288870
  19.7958370  41.4672010  52.4644990  19.8761960  40.5199520  52.5762390
  20.6878120  41.7978890  52.5705650  33.1255550  49.5236190  59.8962400
  33.2502970  50.3467360  60.3686210  33.9921110  49.3126920  59.5486550
  20.5973080  51.6167400  59.5679530  21.3335560  51.0682860  59.8388100
  20.9814000  52.4823410  59.4285520  17.4818560  47.6840970  55.4421040
  16.5558340  47.9262110  55.4326450  17.9474990  48.5115230  55.3205790
  23.7075390  50.7897710  51.3905100  24.5004000  51.0786540  50.9386890
  23.1879740  50.3589880  50.7117580  32.7605560  50.0167840  52.8141840
  32.4747070  49.6032980  51.9996020  32.5625110  50.9455550  52.6942360
  24.2252790  46.0101120  51.2547450  24.1203430  45.3953470  51.9808830
  24.0577010  45.4867010  50.4710460  27.4655520  45.0721150  51.8589440
  26.9165620  45.5190450  52.5032180  28.0874780  44.5670400  52.3827110
  23.1330640  44.0312070  53.7554740  23.5547060  43.8651940  54.5986130
  23.2581480  43.2212300  53.2609880  25.6458280  43.0549680  51.0031840
  26.1663940  42.3398700  50.6372990  26.2926680  43.6935550  51.3032350
  29.5077850  34.9153530  53.2299780  29.7880140  34.0721430  53.5859200
  28.7343580  35.1476640  53.7438530  24.0457270  36.1480540  51.6746980
  23.6979270  35.4704530  51.0949430  24.2470040  35.6870050  52.4890370
  26.2106310  51.1361290  53.2933580  27.1057100  51.4746260  53.3152340
  26.2423940  50.4140700  52.6657860  19.8502470  46.5088340  51.5220580
  20.2877340  47.0518010  52.1778160  20.3350200  45.6835290  51.5316920
  17.0648270  49.2977370  58.9740840  17.3951280  48.4298430  58.7419480
  17.4939270  49.5035890  59.8045800  21.6610190  47.6286380  56.6342810
  21.3605730  47.5051350  57.5346720  21.5547680  46.7694970  56.2258540
  34.4302110  47.4082780  51.3369490  33.5995070  47.4759430  51.8076720
  34.6073940  48.2986900  51.0336350  33.8858570  44.1530260  53.8403690
  34.6477480  44.7226910  53.9463380  33.9012940  43.5857460  54.6112000
  17.3862910  42.6768190  58.0711350  16.7311750  42.4079830  57.4271050
  18.2240860  42.5672670  57.6213330  34.8918540  45.0080360  58.6845620
  35.2627370  44.2247680  58.2781590  35.5320470  45.6969460  58.5062920
  33.9377740  44.4464630  50.9976210  34.2126580  45.3543510  50.8695430
  33.7488480  44.3827160  51.9338200  30.3353350  37.4709480  52.2929840
  30.7538230  37.2840460  51.4526500  30.0289410  36.6188530  52.6032770
  33.8343080  42.3833620  55.9905640  33.4586680  41.6161550  55.5586930
  33.1046200  42.7656320  56.4780570  16.6000990  39.8867120  54.0136680
  15.6965070  40.1497320  53.8388340  17.0841610  40.1578290  53.2336640
  33.1094040  40.6091110  59.2912880  33.6331520  40.1153760  58.6603050
  33.6953460  40.7441470  60.0360450  18.7902360  34.9971990  50.9633710
  19.5130490  35.5380930  51.2814930  19.0626880  34.7235410  50.0875250
  32.5994010  39.8664460  55.2305290  33.0953130  39.6335330  56.0154170
  32.4010080  39.0276300  54.8142930  18.4794550  34.2478180  60.8656330
  19.1270740  33.6975560  60.4251490  18.8996390  34.5021330  61.6872140
  34.0281170  38.5025410  57.7642970  33.9180450  38.3481450  58.7025240
  34.7888760  37.9746350  57.5218380  34.9171440  36.3333330  51.0049110
  35.8420750  36.2014510  50.7967400  34.8947230  36.4126150  51.9585560
  34.9909930  37.1043990  53.6305820  34.1961430  37.0389110  54.1598730
  35.1953210  38.0394630  53.6191170  31.9328350  51.1435540  57.6244210
  32.5287420  50.8220110  56.9478630  32.1906500  50.6707360  58.4157480
  32.4840560  51.7930840  61.4541940  32.0243530  52.5446650  61.0799960
  31.8553020  51.0737310  61.3956740  22.9136280  50.1019080  60.6290070
  23.4301300  49.4906440  60.1038330  23.5633660  50.6047860  61.1201080
  31.4229860  35.4340870  60.0804650  31.8637950  35.3785970  59.2326250
  31.1537450  36.3498880  60.1514830  33.2868430  35.0656110  58.0913470
  33.2256830  34.1217330  57.9444490  34.0660460  35.1736200  58.6366930
  17.5921180  51.2048470  57.0537420  17.4243220  50.5719150  57.7519310
  16.7255690  51.4107870  56.7031610  18.2149200  35.0365250  54.5569280
  18.9728560  35.1494130  53.9833310  17.7526370  35.8734450  54.5112710
  24.7563010  37.1504520  57.5471590  23.9437520  36.7761410  57.2067470
  25.2604650  36.3949600  57.8492780  29.2587990  33.8146970  58.7854660
  29.8617360  34.3867180  59.2603180  28.5180980  34.3786410  58.5628560
  32.4022590  34.2168530  54.0594940  32.5973220  35.1151980  54.3262370
  31.6152460  33.9855610  54.5527890  19.1983880  49.8981700  54.4987560
  18.6731500  50.2789730  53.7949520  19.1228460  50.5232470  55.2197270
  20.5874350  35.5629300  53.0971250  21.1167110  34.7759100  52.9679200
  21.2202670  36.2420490  53.3306780  22.7812190  35.3004440  56.1516640
  22.1514930  34.5991750  56.3186770  22.2417330  36.0608570  55.9349800
  33.9549200  51.4569240  55.8201500  34.1301390  50.7706980  55.1762420
  33.2570770  51.9816290  55.4278170  21.7976850  51.8464080  53.3736810
  22.5295670  51.5623360  52.8260700  22.0570520  51.6077360  54.2636190
  20.9591640  47.9628810  53.3783140  20.3300520  48.4313910  53.9268970
  21.0739470  47.1178030  53.8129330  20.5426490  48.1373390  42.4827390
  20.8454530  47.2471130  42.3037610  21.2870080  48.6943610  42.2549640
  17.0276690  46.0527460  34.5768270  16.6504670  46.5414560  33.8453170
  17.2849760  46.7252740  35.2074800  23.0984720  46.7324980  41.7172840
  22.8013010  46.1270450  41.0380620  24.0484540  46.7702290  41.6062200
  31.1870330  50.3056850  45.3795940  30.7100890  51.1129040  45.1868550
  30.5032120  49.6535180  45.5322150  22.8154720  49.2841690  49.1523160
  22.7870150  49.6884640  48.2851590  22.6519690  48.3552050  48.9894760
  34.7669540  50.0668790  50.4487330  35.2429260  50.5451680  51.1276410
  35.3876700  49.9986280  49.7232830  16.9693020  45.1117540  42.8608920
  17.0473440  45.2466310  41.9164640  17.5834700  44.4033430  43.0537040
  18.2140650  46.8117730  39.2715100  17.8068730  46.9532320  38.4168700
  19.1053660  46.5277890  39.0686310  34.1702790  47.2581640  47.6087340
  34.2965850  47.0193520  46.6904520  34.2124170  46.4266180  48.0809420
  28.0319530  50.9609640  46.1782150  28.5464200  50.8717650  46.9804580
  27.1888610  51.3069340  46.4710060  22.4862310  51.0263510  37.3837770
  22.3104790  50.1099050  37.1705570  21.6318050  51.3850800  37.6235570
  17.0252540  46.1531710  45.4003380  17.1883580  45.6837070  44.5822750
  17.4904990  45.6455270  46.0652220  18.5991520  45.5283140  47.5599190
  18.2146310  44.8876810  48.1582150  18.9103710  46.2319260  48.1293920
  21.1107220  45.2909690  39.5937680  21.6285890  44.4877950  39.5394570
  20.6591240  45.2288830  40.4354510  17.1059810  42.2562320  33.1297980
  17.9754660  42.5387120  33.4133900  16.6150130  43.0698190  33.0146790
  17.4731060  51.4689700  33.6959610  17.8328700  52.0679040  33.0416880
  17.3323400  52.0149590  34.4694640  17.4572920  49.7344560  48.1702010
  17.5664040  48.7939300  48.0297400  16.8053480  49.9999310  47.5215740
  25.4485510  48.0060450  49.5700130  25.1282380  47.2869690  50.1145820
  24.7743870  48.6815520  49.6436190  19.0906320  44.0735790  35.2580040
  18.4834270  44.8134690  35.2675340  19.5655670  44.1635150  34.4318240
  20.5973080  51.6167400  40.7936040  21.3335560  51.0682860  41.0644610
  20.9814000  52.4823410  40.6542030  17.4818560  47.6840970  36.6677550
  16.5558340  47.9262110  36.6582960  17.9474990  48.5115230  36.5462300
  19.6031360  50.8013470  49.9821620  20.4044090  51.1225520  50.3957020
  19.0883180  50.4409050  50.7041530  28.4395990  46.9093340  49.9297030
  27.8334150  46.9324940  49.1892780  28.1350100  46.1776380  50.4664280
  29.8696360  50.6373630  48.5406440  30.8218110  50.5531650  48.4906680
  29.7224580  51.3015340  49.2140230  31.5190460  46.4263250  49.0168210
  32.2599930  46.7639010  48.5135670  30.7563140  46.5955310  48.4637980
  22.8058770  50.7351570  46.6377080  22.2679860  51.4597630  46.3185780
  23.0592730  50.2581910  45.8474420  25.6620980  51.9702780  46.8963730
  25.5879680  52.8737920  47.2036100  24.7599820  51.6514680  46.8685800
  17.0648270  49.2977370  40.1997350  17.3951280  48.4298430  39.9675990
  17.4939270  49.5035890  41.0302310  17.5538480  50.1647960  42.9378980
  17.1169470  50.3448760  43.7703130  18.1216160  50.9222580  42.7960700
  33.1900660  49.6664960  47.2256290  32.5902650  49.7257520  46.4820210
  33.3194560  48.7269940  47.3553140  16.6000990  39.8867120  35.2393190
  15.6965070  40.1497320  35.0644850  17.0841610  40.1578290  34.4593150
  19.8390920  47.5753450  48.9991350  19.7960550  47.2046360  49.8805810
  19.9701930  48.5131020  49.1393170  34.8001110  51.1507420  45.4011710
  34.3059390  51.5476290  44.6838840  34.1914400  50.5256630  45.7948990
  19.6778950  50.5215700  46.1189130  19.0839270  50.3900400  46.8579170
  19.6702790  49.6853840  45.6531230  32.4840560  51.7930840  42.6798450
  32.0243530  52.5446650  42.3056470  31.8553020  51.0737310  42.6213250
  19.3091180  47.8874080  45.0697170  18.5825240  47.2679370  45.0023120
  19.3700330  48.2814690  44.1995250  17.5921180  51.2048470  38.2793930
  17.4243220  50.5719150  38.9775820  16.7255690  51.4107870  37.9288120
  19.1983880  49.8981700  35.7244070  18.6731500  50.2789730  35.0206030
  19.1228460  50.5232470  36.4453780  25.7204140  51.9143670  50.0483760
  26.6471450  51.6787940  50.0919720  25.7054570  52.7415670  49.5669790
  21.7976850  51.8464080  34.5993320  22.5295670  51.5623360  34.0517210
  22.0570520  51.6077360  35.4892700  32.2881700  51.1413530  49.8724800
  33.0807020  50.6462760  49.6650760  32.5814850  51.8203670  50.4800410
  20.5426490  48.1373390  23.7083900  20.8454530  47.2471130  23.5294120
  21.2870080  48.6943610  23.4806150  18.9717180  39.0635190  17.2968270
  18.0833880  39.4051160  17.1948150  19.2558370  38.8635510  16.4049100
  16.9350190  41.6640840  23.1807970  17.5066300  40.8963040  23.1811610
  16.9351730  41.9629600  22.2714580  26.7930140  50.4831690  21.0353240
  26.1741580  50.9389190  20.4647680  27.6481920  50.6383150  20.6342940
  18.1775060  37.0725200  24.9676900  17.9977900  36.1750950  25.2479660
  17.7755140  37.6197070  25.6423850  18.7961730  39.5685700  23.5759240
  19.4771840  39.8324070  24.1946640  18.4809780  38.7286570  23.9097250
  17.0276690  46.0527460  15.8024780  16.6504670  46.5414560  15.0709680
  17.2849760  46.7252740  16.4331310  32.6521940  48.3267010  24.8372570
  31.9685460  48.9966120  24.8289240  33.1916230  48.5247660  24.0717430
  30.1880680  50.1711140  23.5517750  30.2007840  49.7673430  22.6840010
  29.6355900  50.9458430  23.4479180  34.7669540  50.0668790  31.6743840
  35.2429260  50.5451680  32.3532920  35.3876700  49.9986280  30.9489340
  16.9693020  45.1117540  24.0865430  17.0473440  45.2466310  23.1421150
  17.5834700  44.4033430  24.2793550  18.2140650  46.8117730  20.4971610
  17.8068730  46.9532320  19.6425210  19.1053660  46.5277890  20.2942820
  34.1702790  47.2581640  28.8343850  34.2965850  47.0193520  27.9161030
  34.2124170  46.4266180  29.3065930  30.0073930  51.2464980  16.8322660
  29.8475070  50.9567920  17.7304490  29.8420640  50.4705110  16.2967890
  22.4862310  51.0263510  18.6094280  22.3104790  50.1099050  18.3962080
  21.6318050  51.3850800  18.8492080  29.7100060  48.7552540  15.3920660
  29.0165220  48.7529830  14.7322940  30.4522920  48.3311860  14.9614830
  17.0252540  46.1531710  26.6259890  17.1883580  45.6837070  25.8079260
  17.4904990  45.6455270  27.2908730  16.4612330  35.6398750  22.2425840
  16.1725380  36.2101610  22.9550820  17.2058090  35.1603200  22.6057070
  16.6482560  39.5818870  13.4528560  16.5657230  40.5249630  13.5943550
  16.2965620  39.4393780  12.5740910  18.5991520  45.5283140  28.7855700
  18.2146310  44.8876810  29.3838660  18.9103710  46.2319260  29.3550430
  32.2730400  41.6964120  14.8813180  32.1894120  42.1278340  14.0309620
  32.9924590  42.1562470  15.3140000  17.1059810  42.2562320  14.3554490
  17.9754660  42.5387120  14.6390410  16.6150130  43.0698190  14.2403300
  31.6915030  47.4422840  14.1471660  31.4652610  46.7253280  14.7396300
  31.3011230  47.1935280  13.3093410  17.4731060  51.4689700  14.9216120
  17.8328700  52.0679040  14.2673390  17.3323400  52.0149590  15.6951150
  17.4572920  49.7344560  29.3958520  17.5664040  48.7939300  29.2553910
  16.8053480  49.9999310  28.7472250  23.4899680  48.8520900  15.7389790
  23.4809780  49.5850590  15.1234300  22.5698040  48.6052480  15.8316750
  26.4759280  48.9149140  14.4014980  26.5771260  48.7113130  13.4716960
  25.5761020  48.6607420  14.6062760  25.1177390  51.4335460  19.0962650
  25.3718890  51.3956850  18.1742020  24.1689870  51.3068790  19.0890900
  33.1255550  49.5236190  22.3475420  33.2502970  50.3467360  22.8199230
  33.9921110  49.3126920  21.9999570  20.5973080  51.6167400  22.0192550
  21.3335560  51.0682860  22.2901120  20.9814000  52.4823410  21.8798540
  17.4818560  47.6840970  17.8934060  16.5558340  47.9262110  17.8839470
  17.9474990  48.5115230  17.7718810  19.6031360  50.8013470  31.2078130
  20.4044090  51.1225520  31.6213530  19.0883180  50.4409050  31.9298040
  23.7075390  50.7897710  13.8418120  24.5004000  51.0786540  13.3899910
  23.1879740  50.3589880  13.1630600  32.7605560  50.0167840  15.2654860
  32.4747070  49.6032980  14.4509040  32.5625110  50.9455550  15.1455380
  17.3229170  43.2886930  30.1514180  17.8268190  42.7094210  30.7230410
  16.5836590  43.5727160  30.6890550  22.0289540  40.1045300  13.1525920
  21.8278600  39.2412660  13.5139260  21.8581590  40.0178660  12.2147520
  22.8058770  50.7351570  27.8633590  22.2679860  51.4597630  27.5442290
  23.0592730  50.2581910  27.0730930  20.8272340  37.2045920  13.1403800
  21.1298240  37.2113350  12.2322950  21.5666930  36.8543780  13.6371460
  26.2106310  51.1361290  15.7446600  27.1057100  51.4746260  15.7665360
  26.2423940  50.4140700  15.1170880  19.8502470  46.5088340  13.9733600
  20.2877340  47.0518010  14.6291180  20.3350200  45.6835290  13.9829940
  17.0648270  49.2977370  21.4253860  17.3951280  48.4298430  21.1932500
  17.4939270  49.5035890  22.2558820  21.6610190  47.6286380  19.0855830
  21.3605730  47.5051350  19.9859740  21.5547680  46.7694970  18.6771560
  17.5538480  50.1647960  24.1635490  17.1169470  50.3448760  24.9959640
  18.1216160  50.9222580  24.0217210  34.4302110  47.4082780  13.7882510
  33.5995070  47.4759430  14.2589740  34.6073940  48.2986900  13.4849370
  17.3862910  42.6768190  20.5224370  16.7311750  42.4079830  19.8784070
  18.2240860  42.5672670  20.0726350  33.9377740  44.4464630  13.4489230
  34.2126580  45.3543510  13.3208450  33.7488480  44.3827160  14.3851220
  18.4238840  43.0620760  25.0627710  18.7911880  42.9748160  25.9423730
  17.8549660  42.2987310  24.9634570  16.6000990  39.8867120  16.4649700
  15.6965070  40.1497320  16.2901360  17.0841610  40.1578290  15.6849660
  19.1428200  38.9432660  14.3744080  19.8519900  38.5215880  13.8891360
  18.4268140  39.0107890  13.7427430  18.7902360  34.9971990  13.4146730
  19.5130490  35.5380930  13.7327950  19.0626880  34.7235410  12.5388270
  34.9171440  36.3333330  13.4562130  35.8420750  36.2014510  13.2480420
  34.8947230  36.4126150  14.4098580  31.9328350  51.1435540  20.0757230
  32.5287420  50.8220110  19.3991650  32.1906500  50.6707360  20.8670500
  19.8390920  47.5753450  30.2247860  19.7960550  47.2046360  31.1062320
  19.9701930  48.5131020  30.3649680  34.8001110  51.1507420  26.6268220
  34.3059390  51.5476290  25.9095350  34.1914400  50.5256630  27.0205500
  19.6778950  50.5215700  27.3445640  19.0839270  50.3900400  28.0835680
  19.6702790  49.6853840  26.8787740  32.4840560  51.7930840  23.9054960
  32.0243530  52.5446650  23.5312980  31.8553020  51.0737310  23.8469760
  19.3091180  47.8874080  26.2953680  18.5825240  47.2679370  26.2279630
  19.3700330  48.2814690  25.4251760  22.9136280  50.1019080  23.0803090
  23.4301300  49.4906440  22.5551350  23.5633660  50.6047860  23.5714100
  25.6531780  50.9927570  23.9072070  25.9409590  50.7381870  23.0305080
  26.1655000  50.4404930  24.4977640  17.5921180  51.2048470  19.5050440
  17.4243220  50.5719150  20.2032330  16.7255690  51.4107870  19.1544630
  18.2149200  35.0365250  17.0082300  18.9728560  35.1494130  16.4346330
  17.7526370  35.8734450  16.9625730  19.1983880  49.8981700  16.9500580
  18.6731500  50.2789730  16.2462540  19.1228460  50.5232470  17.6710290
  20.5874350  35.5629300  15.5484270  21.1167110  34.7759100  15.4192220
  21.2202670  36.2420490  15.7819800  33.9549200  51.4569240  18.2714520
  34.1301390  50.7706980  17.6275440  33.2570770  51.9816290  17.8791190
  21.7976850  51.8464080  15.8249830  22.5295670  51.5623360  15.2773720
  22.0570520  51.6077360  16.7149210  20.9591640  47.9628810  15.8296160
  20.3300520  48.4313910  16.3781990  21.0739470  47.1178030  16.2642350
  26.5459400  43.7913490   3.8606630  25.7701500  43.3113930   4.1505200
  27.1972330  43.1119140   3.6862790  20.5625230  44.1033300   4.7382390
  19.7310110  43.8482010   5.1378900  21.1706210  44.1744070   5.4740310
  30.5666830  48.1973680   2.6405760  30.1048360  47.4260920   2.9692930
  31.3792380  48.2239750   3.1458210  20.5426490  48.1373390   4.9340410
  20.8454530  47.2471130   4.7550630  21.2870080  48.6943610   4.7062660
  16.9350190  41.6640840   4.4064480  17.5066300  40.8963040   4.4068120
  16.9351730  41.9629600   3.4971090  26.7930140  50.4831690   2.2609750
  26.1741580  50.9389190   1.6904190  27.6481920  50.6383150   1.8599450
  25.9868390  46.4670680   3.8676790  25.9176670  45.5260620   3.7065920
  26.7488250  46.5572090   4.4399360  18.1775060  37.0725200   6.1933410
  17.9977900  36.1750950   6.4736170  17.7755140  37.6197070   6.8680360
  27.0173560  39.2741060   4.0945720  27.3938380  38.4012940   3.9819390
  26.9193070  39.6099760   3.2036160  18.7961730  39.5685700   4.8015750
  19.4771840  39.8324070   5.4203150  18.4809780  38.7286570   5.1353760
  22.9886300  40.6153060   3.8888340  23.4964520  41.1134030   4.5293360
  23.5199540  39.8388260   3.7127700  35.0897230  38.7858250   7.5917690
  34.3849400  39.1739960   7.0732800  35.3555150  39.4808540   8.1938620
  21.2722400  35.2551620   8.1551760  21.2740840  35.7724010   7.3497660
  20.4426710  34.7781800   8.1321690  22.5225250  44.8946800   6.3325260
  22.1894630  45.5215720   6.9746330  22.6991930  45.4208680   5.5526930
  31.0359160  38.7091880   3.8001600  30.3314730  38.9976770   4.3804710
  31.3971320  39.5191990   3.4401160  20.9537730  36.9661580   6.1622210
  21.2954540  37.8103630   5.8676080  20.0153540  37.1145320   6.2787550
  21.7344350  46.8627600   8.1474440  22.3518350  47.5378680   7.8658890
  20.8737470  47.2715580   8.0561940  32.6521940  48.3267010   6.0629080
  31.9685460  48.9966120   6.0545750  33.1916230  48.5247660   5.2973940
  34.1046080  38.1546670   4.1910810  33.1570990  38.1885650   4.3226240
  34.4296070  38.9685620   4.5760170  24.6365620  34.4543850   2.4866800
  24.9440600  33.8990740   1.7702300  23.7066320  34.5888310   2.3039790
  30.1880680  50.1711140   4.7774260  30.2007840  49.7673430   3.9096520
  29.6355900  50.9458430   4.6735690  29.5866120  45.0740980   6.1056870
  30.0034910  44.8601090   5.2710330  30.3105940  45.3313770   6.6765490
  33.5328220  43.4728200   6.1973110  32.7046850  43.5421290   5.7223240
  34.1278700  44.0582510   5.7288940  30.4970230  40.2597520   7.1427980
  30.0841410  41.0851230   7.3967970  29.7646180  39.6742560   6.9504340
  23.0984720  46.7324980   4.1685860  22.8013010  46.1270450   3.4893640
  24.0484540  46.7702290   4.0575220  21.3431640  39.8200630   5.7845690
  21.8946230  39.9295970   5.0098940  21.8575150  40.1938230   6.5000920
  31.1870330  50.3056850   7.8308960  30.7100890  51.1129040   7.6381570
  30.5032120  49.6535180   7.9835170  22.1903150  46.4706670  10.8193660
  21.2931680  46.6946640  11.0667060  22.2156020  46.5941610   9.8705060
  21.0174370  43.3419990   9.3951030  20.8782140  44.2142790   9.7638430
  20.1355730  42.9992800   9.2498970  22.8154720  49.2841690  11.6036180
  22.7870150  49.6884640  10.7364610  22.6519690  48.3552050  11.4407780
  34.7669540  50.0668790  12.9000350  35.2429260  50.5451680  13.5789430
  35.3876700  49.9986280  12.1745850  16.9693020  45.1117540   5.3121940
  17.0473440  45.2466310   4.3677660  17.5834700  44.4033430   5.5050060
  34.1702790  47.2581640  10.0600360  34.2965850  47.0193520   9.1417540
  34.2124170  46.4266180  10.5322440  28.0319530  50.9609640   8.6295170
  28.5464200  50.8717650   9.4317600  27.1888610  51.3069340   8.9223080
  34.0226800  39.3114100  11.0250100  33.4071070  39.8193770  10.4965560
  33.7023220  38.4112430  10.9676040  17.0252540  46.1531710   7.8516400
  17.1883580  45.6837070   7.0335770  17.4904990  45.6455270   8.5165240
  21.7971310  35.2837470   2.8876970  21.3539460  36.0647010   2.5561490
  22.3556300  35.6067360   3.5947910  26.0841120  38.1505990   8.4912290
  25.6220490  38.3589010   9.3032230  25.6819230  37.3365340   8.1882960
  31.0845630  39.3714940   9.6208950  30.2339220  39.0720690   9.9418020
  30.9247420  39.6156950   8.7092770  28.1795340  40.8716690  11.7207740
  28.5048750  40.0380440  11.3809970  28.9675670  41.3945210  11.8686070
  23.8347210  35.8284800   4.7466570  24.1319540  36.7347630   4.6658590
  24.3832770  35.3403580   4.1326140  24.0284740  41.3056620  11.2818490
  23.9328340  40.3651350  11.1318890  24.8716720  41.5271690  10.8866560
  19.1595280  37.7170290   9.4352270  18.7658670  38.5645500   9.6425050
  18.4713680  37.0796660   9.6260910  16.4612330  35.6398750   3.4682350
  16.1725380  36.2101610   4.1807330  17.2058090  35.1603200   3.8313580
  28.0103300  41.6403700   5.3402930  27.2784420  42.1490510   5.6893030
  27.6127640  40.8233680   5.0391710  24.4480690  38.3157900   3.7455420
  24.4516750  37.8747850   2.8959960  25.3431810  38.6375230   3.8527240
  20.2983070  38.1984390   2.7049630  19.9583120  38.6759620   3.4616680
  19.5360390  37.7449510   2.3450730  28.4729210  37.0937380   4.7525870
  28.4901950  37.5446030   5.5967720  28.2244790  36.1943020   4.9659310
  31.8999960  34.5069560  10.5912250  32.2245730  33.7759220  11.1170230
  31.9356470  34.1883200   9.6893240  18.5991520  45.5283140  10.0112210
  18.2146310  44.8876810  10.6095170  18.9103710  46.2319260  10.5806940
  24.7488660  42.3759680   5.4920830  25.1158790  41.9018250   6.2382170
  24.5593720  43.2501250   5.8329170  22.5388030  41.4168320   7.8105040
  22.2345100  42.2960300   8.0355400  23.4934490  41.4768110   7.8462480
  31.8257800  44.6194670   4.1998280  32.5456920  45.1149960   3.8094390
  31.6239620  43.9412560   3.5552150  27.2076600  44.6903730  10.0867280
  27.1413910  43.7699400   9.8324870  26.5781740  44.7879170  10.8011920
  21.1107220  45.2909690   2.0450700  21.6285890  44.4877950   1.9907590
  20.6591240  45.2288830   2.8867530  18.5951760  42.2571060   8.9576400
  18.2366700  42.9224910   9.5449740  18.3006320  41.4254610   9.3289020
  21.7964880  42.7155300  11.8415950  21.4965020  42.8612480  10.9443770
  22.5676120  42.1560590  11.7489340  27.1393330  47.5124300   9.8371080
  27.1537870  46.5805260   9.6189990  26.4318430  47.5984060  10.4760850
  33.3504540  44.1531640   9.1839660  32.6252730  44.7460420   8.9869050
  33.8780000  44.1455180   8.3853030  28.8804130  45.8791810   2.6823510
  29.2327950  45.2819940   2.0224880  27.9966460  45.5536040   2.8531760
  26.5727230  49.1541870   6.9311580  27.2169450  49.3601250   7.6085000
  26.9356670  48.3930270   6.4782430  27.8459310  47.1574220   5.6489030
  28.4881540  46.4567380   5.7621200  28.3708660  47.9372660   5.4685920
  29.6196930  47.9569120   8.8525090  29.9553170  48.5435810   9.5303010
  28.6997270  47.8261830   9.0822880  17.1700330  35.7464300   9.6348500
  16.4558850  35.9461220  10.2401110  17.5895370  34.9703870  10.0063300
  17.4572920  49.7344560  10.6215030  17.5664040  48.7939300  10.4810420
  16.8053480  49.9999310   9.9728760  25.4485510  48.0060450  12.0213150
  25.1282380  47.2869690  12.5658840  24.7743870  48.6815520  12.0949210
  28.6639110  38.2386610   7.3849950  29.0319930  37.4181820   7.7129520
  27.8037310  38.2988500   7.8005600  25.6241100  40.8926200   7.6087920
  26.1226350  41.3672020   8.2739770  25.7664050  39.9689720   7.8157950
  32.8307960  37.1094160   8.4516310  32.3281560  37.8499560   8.7910120
  33.6464620  37.4978160   8.1353100  31.1229970  42.3527340   1.8977670
  30.1820110  42.3677570   2.0725360  31.4374040  41.5663300   2.3437970
  33.1255550  49.5236190   3.5731930  33.2502970  50.3467360   4.0455740
  33.9921110  49.3126920   3.2256080  20.5973080  51.6167400   3.2449060
  21.3335560  51.0682860   3.5157630  20.9814000  52.4823410   3.1055050
  19.6031360  50.8013470  12.4334640  20.4044090  51.1225520  12.8470040
  19.0883180  50.4409050  13.1554550  28.4395990  46.9093340  12.3810050
  27.8334150  46.9324940  11.6405800  28.1350100  46.1776380  12.9177300
  29.8696360  50.6373630  10.9919460  30.8218110  50.5531650  10.9419700
  29.7224580  51.3015340  11.6653250  17.3229170  43.2886930  11.3770690
  17.8268190  42.7094210  11.9486920  16.5836590  43.5727160  11.9147060
  24.3767110  44.6957920  10.9106210  23.6112780  45.2642920  10.8260880
  24.5583070  44.4034130  10.0174440  31.5190460  46.4263250  11.4681230
  32.2599930  46.7639010  10.9648690  30.7563140  46.5955310  10.9151000
  19.3552250  41.4316520  12.2720760  19.3957590  41.1330390  13.1805990
  20.2097750  41.8324130  12.1128280  21.2958060  40.0108620  10.2395250
  20.7654520  39.5199570   9.6118590  21.9646130  40.4392820   9.7053180
  30.1936120  44.4778080  10.0036440  30.6077140  44.6323160  10.8526860
  29.2587120  44.6033300  10.1662220  30.6658290  41.8174240  12.0075590
  31.2479060  41.0626560  11.9196070  30.8420060  42.3481680  11.2307070
  21.7830360  36.9770990  10.3192540  21.6887230  36.3591740   9.5943410
  21.2027750  37.7037280  10.0922450  24.5491800  35.5344230   7.3519930
  24.1009100  35.5568490   6.5065480  23.9157000  35.1363250   7.9490230
  24.9551350  44.4298560   7.9732370  25.3739460  45.2731290   7.8008610
  24.0359980  44.5670600   7.7439150  27.2915250  42.1614740   9.3570210
  27.4111460  41.5655880  10.0965050  28.1509250  42.1984430   8.9371510
  29.6303150  42.7151930   7.9332720  29.1038370  43.2394550   7.3297860
  29.9734490  43.3479320   8.5642450  22.8058770  50.7351570   9.0890100
  22.2679860  51.4597630   8.7698800  23.0592730  50.2581910   8.2987440
  24.0584020  38.7036090  10.6146030  24.6483710  38.3951940  11.3023850
  23.2404260  38.2315840  10.7705930  28.8777450  38.3201900  10.8479050
  28.1892970  37.6583440  10.7829040  29.5983470  37.8740170  11.2927510
  25.6620980  51.9702780   9.3476750  25.5879680  52.8737920   9.6549120
  24.7599820  51.6514680   9.3198820  17.0648270  49.2977370   2.6510370
  17.3951280  48.4298430   2.4189010  17.4939270  49.5035890   3.4815330
  17.5538480  50.1647960   5.3892000  17.1169470  50.3448760   6.2216150
  18.1216160  50.9222580   5.2473720  33.1900660  49.6664960   9.6769310
  32.5902650  49.7257520   8.9333230  33.3194560  48.7269940   9.8066160
  34.8918540  45.0080360   2.3615150  35.2627370  44.2247680   1.9551120
  35.5320470  45.6969460   2.1832450  31.8752300  46.3916940   7.7745470
  31.0612140  46.8214100   8.0371260  32.2826500  47.0035350   7.1614520
  18.4238840  43.0620760   6.2884220  18.7911880  42.9748160   7.1680240
  17.8549660  42.2987310   6.1891080  33.2242700  41.5305140   9.3014690
  32.9928790  41.3017890   8.4012640  33.4847250  42.4504690   9.2559580
  17.9754840  39.9729850  10.1942640  17.0810890  39.9396610  10.5336350
  18.5152390  40.1716640  10.9593890  31.6630770  36.7561570  12.0794390
  32.5400950  36.7644970  12.4628390  31.6751610  36.0192410  11.4686740
  33.1094040  40.6091110   2.9682410  33.6331520  40.1153760   2.3372580
  33.6953460  40.7441470   3.7129980  33.2883760  40.6930980   6.4901960
  32.3386470  40.6594520   6.6046950  33.4696770  41.6031090   6.2551730
  18.4794550  34.2478180   4.5425860  19.1270740  33.6975560   4.1021020
  18.8996390  34.5021330   5.3641670  32.3746890  34.4419540   7.8995500
  33.0119110  35.0553680   8.2654690  32.5221780  34.4780200   6.9544730
  18.2326550  34.4033850   7.2851180  17.8841370  34.8597670   8.0509360
  17.9014250  33.5090980   7.3673610  19.8390920  47.5753450  11.4504370
  19.7960550  47.2046360  12.3318830  19.9701930  48.5131020  11.5906190
  23.5396950  49.1313040   7.0514090  23.2988310  49.3987600   6.1644610
  24.4799590  49.3018770   7.1064950  34.8001110  51.1507420   7.8524730
  34.3059390  51.5476290   7.1351860  34.1914400  50.5256630   8.2462010
  18.9047190  33.9310050  10.5601950  19.4530180  33.7498100   9.7968060
  18.9702500  33.1404160  11.0958260  19.6778950  50.5215700   8.5702150
  19.0839270  50.3900400   9.3092190  19.6702790  49.6853840   8.1044250
  29.1233970  33.8147930   6.7732180  28.2493810  34.1483040   6.5705110
  29.0144720  33.3421110   7.5984050  30.0305950  36.0218800   8.1573900
  29.7019310  35.2070560   7.7775630  30.9788250  35.9788610   8.0339590
  32.4840560  51.7930840   5.1311470  32.0243530  52.5446650   4.7569490
  31.8553020  51.0737310   5.0726270  19.3091180  47.8874080   7.5210190
  18.5825240  47.2679370   7.4536140  19.3700330  48.2814690   6.6508270
  22.9136280  50.1019080   4.3059600  23.4301300  49.4906440   3.7807860
  23.5633660  50.6047860   4.7970610  25.6531780  50.9927570   5.1328580
  25.9409590  50.7381870   4.2561590  26.1655000  50.4404930   5.7234150
  26.8708790  34.7317770   5.7125090  26.0880580  35.2063270   5.9921850
  26.5771720  33.8272600   5.6038270  31.4229860  35.4340870   3.7574180
  31.8637950  35.3785970   2.9095780  31.1537450  36.3498880   3.8284360
  33.2868430  35.0656110   1.7683000  33.2256830  34.1217330   1.6214020
  34.0660460  35.1736200   2.3136460  29.2587990  33.8146970   2.4624190
  29.8617360  34.3867180   2.9372710  28.5180980  34.3786410   2.2398090
  25.7204140  51.9143670  12.4996780  26.6471450  51.6787940  12.5432740
  25.7054570  52.7415670  12.0182810  22.9067750  34.5788420  12.2638660
  22.6252020  35.0822020  11.4999480  23.2887450  33.7810170  11.8980790
  32.2881700  51.1413530  12.3237820  33.0807020  50.6462760  12.1163780
  32.5814850  51.8203670  12.9313430  28.4141360  23.2390980  58.3027830
  28.3335410  22.3245590  58.0319540  28.0005780  23.7358050  57.5967540
  26.5459400  25.0170000  60.1837100  25.7701500  24.5370440  60.4735670
  27.1972330  24.3375650  60.0093260  20.5625230  25.3289810  61.0612860
  19.7310110  25.0738520  61.4609370  21.1706210  25.4000580  61.7970780
  30.5666830  29.4230190  58.9636230  30.1048360  28.6517430  59.2923400
  31.3792380  29.4496260  59.4688680  20.5426490  29.3629900  61.2570880
  20.8454530  28.4727640  61.0781100  21.2870080  29.9200120  61.0293130
  18.9717180  20.2891700  54.8455250  18.0833880  20.6307670  54.7435130
  19.2558370  20.0892020  53.9536080  16.9350190  22.8897350  60.7294950
  17.5066300  22.1219550  60.7298590  16.9351730  23.1886110  59.8201560
  26.7930140  31.7088200  58.5840220  26.1741580  32.1645700  58.0134660
  27.6481920  31.8639660  58.1829920  25.9868390  27.6927190  60.1907260
  25.9176670  26.7517130  60.0296390  26.7488250  27.7828600  60.7629830
  27.0173560  20.4997570  60.4176190  27.3938380  19.6269450  60.3049860
  26.9193070  20.8356270  59.5266630  21.1478570  18.8723200  55.8793630
  21.2545320  19.7726930  56.1862390  20.2370930  18.8241170  55.5888280
  30.7997680  17.9948010  57.3504530  31.6207300  17.5044580  57.3930010
  30.8331760  18.5845670  58.1036370  18.7961730  20.7942210  61.1246220
  19.4771840  21.0580580  61.7433620  18.4809780  19.9543080  61.4584230
  22.9886300  21.8409570  60.2118810  23.4964520  22.3390540  60.8523830
  23.5199540  21.0644770  60.0358170  27.6593490  26.5927440  55.9772130
  27.0410760  27.0576890  55.4134850  28.1716740  27.2854920  56.3941640
  31.0359160  19.9348390  60.1232070  30.3314730  20.2233280  60.7035180
  31.3971320  20.7448500  59.7631630  17.0276690  27.2783970  53.3511760
  16.6504670  27.7671070  52.6196660  17.2849760  27.9509250  53.9818290
  34.1046080  19.3803180  60.5141280  33.1570990  19.4142160  60.6456710
  34.4296070  20.1942130  60.8990640  24.6365620  15.6800360  58.8097270
  24.9440600  15.1247250  58.0932770  23.7066320  15.8144820  58.6270260
  30.1880680  31.3967650  61.1004730  30.2007840  30.9929940  60.2326990
  29.6355900  32.1714940  60.9966160  31.4826100  28.1183870  56.1894900
  31.3722430  27.1758200  56.3144320  31.4794350  28.4799510  57.0757660
  27.0246380  23.7449190  55.5457390  26.0975660  23.6786570  55.7745860
  27.1771200  24.6829320  55.4312630  27.0115460  20.0166190  52.5424550
  26.0719130  20.1780150  52.6277010  27.3298720  20.7351870  51.9960540
  31.0543670  25.3069490  56.0492640  30.4356090  24.9689040  55.4018940
  31.0368120  24.6629250  56.7571830  22.6303020  24.2713930  58.3277120
  22.2260020  23.5591180  57.8323020  22.7166140  23.9267170  59.2165160
  23.0984720  27.9581490  60.4916330  22.8013010  27.3526960  59.8124110
  24.0484540  27.9958800  60.3805690  29.2308370  24.5456300  53.0565390
  29.6701650  23.7078730  52.9103210  29.9436790  25.1785700  53.1429530
  27.3403750  29.4852370  57.0246630  27.7799660  30.2276700  56.6102020
  27.2790640  29.7278940  57.9485590  32.8125510  15.7999110  51.3706430
  32.4998170  15.8925940  52.2705500  33.5737980  16.3780140  51.3203860
  19.3307650  23.1658910  55.8283770  19.2105250  23.8921000  55.2165040
  19.0208540  22.3961820  55.3511680  16.9693020  26.3374050  61.6352410
  17.0473440  26.4722820  60.6908130  17.5834700  25.6289940  61.8280530
  18.2140650  28.0374240  58.0458590  17.8068730  28.1788830  57.1912190
  19.1053660  27.7534400  57.8429800  30.0073930  32.4721490  54.3809640
  29.8475070  32.1824430  55.2791470  29.8420640  31.6961620  53.8454870
  22.4862310  32.2520020  56.1581260  22.3104790  31.3355560  55.9449060
  21.6318050  32.6107310  56.3979060  29.7100060  29.9809050  52.9407640
  29.0165220  29.9786340  52.2809920  30.4522920  29.5568370  52.5101810
  29.2749990  31.6071760  57.0156130  29.7306940  30.8261140  57.3294750
  29.6142510  32.3178580  57.5597310  21.7971310  16.5093980  59.2107440
  21.3539460  17.2903520  58.8791960  22.3556300  16.8323870  59.9178380
  24.9130130  16.1304680  54.0913270  24.2884310  16.1264550  54.8166580
  24.8260250  15.2635640  53.6949240  23.8347210  17.0541310  61.0697040
  24.1319540  17.9604140  60.9889060  24.3832770  16.5660090  60.4556610
  21.5885530  21.6327550  56.9388690  21.3626450  21.4164720  57.8435310
  20.8078060  22.0656010  56.5934660  28.8183290  21.6390920  55.5379340
  28.2192180  22.3626720  55.3542960  29.3662900  21.5767700  54.7555790
  27.4248160  20.2754460  57.5682620  27.8177730  20.5926660  56.7551310
  27.7865010  19.3966340  57.6827140  16.4612330  16.8655260  59.7912820
  16.1725380  17.4358120  60.5037800  17.2058090  16.3859710  60.1544050
  16.6482560  20.8075380  51.0015540  16.5657230  21.7506140  51.1430530
  16.2965620  20.6650290  50.1227890  24.4480690  19.5414410  60.0685890
  24.4516750  19.1004360  59.2190430  25.3431810  19.8631740  60.1757710
  20.2983070  19.4240900  59.0280100  19.9583120  19.9016130  59.7847150
  19.5360390  18.9706020  58.6681200  24.5100840  20.5426490  53.0592650
  24.6313660  20.5012970  54.0078470  24.1249350  21.4050640  52.9039380
  28.4729210  18.3193890  61.0756340  28.4901950  18.7702540  61.9198190
  28.2244790  17.4199530  61.2889780  23.5222340  22.8527630  52.4575950
  22.9539240  22.4045880  51.8311860  24.2311340  23.2120410  51.9241100
  17.6129150  18.3459880  57.9444770  17.3276070  17.9815550  58.7823390
  17.5508010  17.6140340  57.3307910  21.0669820  26.8485820  54.7302360
  20.2932080  26.3083440  54.5701080  21.7964450  26.3292430  54.3920120
  31.8257800  25.8451180  60.5228750  32.5456920  26.3406470  60.1324860
  31.6239620  25.1669070  59.8782620  27.2867740  17.2389140  54.6658140
  26.4732350  16.7402310  54.5903450  27.0929690  18.0787390  54.2494490
  30.0016130  21.6108790  52.9620300  30.8895750  21.9226020  52.7871640
  29.9721220  20.7381040  52.5700880  21.1107220  26.5166200  58.3681170
  21.6285890  25.7134460  58.3138060  20.6591240  26.4545340  59.2098000
  25.9976720  27.7832480  53.6408470  26.3392420  28.5274710  53.1451790
  25.1689430  28.0963600  54.0033300  32.2730400  22.9220630  52.4300160
  32.1894120  23.3534850  51.5796600  32.9924590  23.3818980  52.8626980
  33.3017650  29.7762890  55.1582290  32.6593810  29.1218510  55.4326010
  32.9148310  30.1817980  54.3822960  28.8804130  27.1048320  59.0053980
  29.2327950  26.5076450  58.3455350  27.9966460  26.7792550  59.1762230
  24.9667410  27.8646010  56.4124390  25.6538540  28.4115220  56.7931980
  24.1799830  28.4086740  56.4474000  17.1059810  23.4818830  51.9041470
  17.9754660  23.7643630  52.1877390  16.6150130  24.2954700  51.7890280
  24.2694620  24.8692040  56.0249750  24.7257400  25.6797290  56.2509940
  23.9182830  24.5515180  56.8568240  20.1706400  15.2129690  56.4972270
  20.0421030  15.2047590  57.4457190  19.3468420  15.5512780  56.1463280
  31.6915030  28.6679350  51.6958640  31.4652610  27.9509790  52.2883280
  31.3011230  28.4191790  50.8580390  17.4731060  32.6946210  52.4703100
  17.8328700  33.2935550  51.8160370  17.3323400  33.2406100  53.2438130
  31.2731280  26.5851290  53.3572800  30.9852980  27.0463980  54.1450680
  32.0683450  26.1249060  53.6257020  23.4899680  30.0777410  53.2876770
  23.4809780  30.8107100  52.6721280  22.5698040  29.8308990  53.3803730
  19.0906320  25.2992300  54.0323530  18.4834270  26.0391200  54.0418830
  19.5655670  25.3891660  53.2061730  32.0301140  18.4200060  54.5167980
  31.4014300  18.5245730  53.8026210  31.5353060  18.6396840  55.3061860
  26.4759280  30.1405650  51.9501960  26.5771260  29.9369640  51.0203940
  25.5761020  29.8863930  52.1549740  23.9985170  20.6986010  55.9325860
  23.2901320  21.1672350  56.3739470  24.2829650  20.0408020  56.5671050
  28.0300600  17.4236670  57.3721650  27.9068380  17.4422800  56.4231160
  28.9785160  17.4715610  57.4920050  25.1177390  32.6591970  56.6449630
  25.3718890  32.6213360  55.7229000  24.1689870  32.5325300  56.6377880
  22.2020190  19.0071090  53.3076570  23.0510720  19.4441240  53.2416760
  21.8351460  19.3191350  54.1348630  31.1229970  23.5783850  58.2208140
  30.1820110  23.5934080  58.3955830  31.4374040  22.7919810  58.6668440
  21.1011610  25.2603450  51.7812100  21.8674880  25.1484810  52.3437530
  21.1786300  24.5641420  51.1288870  19.7958370  22.6928520  52.4644990
  19.8761960  21.7456030  52.5762390  20.6878120  23.0235400  52.5705650
  33.1255550  30.7492700  59.8962400  33.2502970  31.5723870  60.3686210
  33.9921110  30.5383430  59.5486550  20.5973080  32.8423910  59.5679530
  21.3335560  32.2939370  59.8388100  20.9814000  33.7079920  59.4285520
  17.4818560  28.9097480  55.4421040  16.5558340  29.1518620  55.4326450
  17.9474990  29.7371740  55.3205790  23.7075390  32.0154220  51.3905100
  24.5004000  32.3043050  50.9386890  23.1879740  31.5846390  50.7117580
  32.7605560  31.2424350  52.8141840  32.4747070  30.8289490  51.9996020
  32.5625110  32.1712060  52.6942360  27.4655520  26.2977660  51.8589440
  26.9165620  26.7446960  52.5032180  28.0874780  25.7926910  52.3827110
  23.1330640  25.2568580  53.7554740  23.5547060  25.0908450  54.5986130
  23.2581480  24.4468810  53.2609880  25.6458280  24.2806190  51.0031840
  26.1663940  23.5655210  50.6372990  26.2926680  24.9192060  51.3032350
  22.0289540  21.3301810  50.7012900  21.8278600  20.4669170  51.0626240
  21.8581590  21.2435170  49.7634500  29.5077850  16.1410040  53.2299780
  29.7880140  15.2977940  53.5859200  28.7343580  16.3733150  53.7438530
  20.8272340  18.4302430  50.6890780  21.1298240  18.4369860  49.7809930
  21.5666930  18.0800290  51.1858440  24.0457270  17.3737050  51.6746980
  23.6979270  16.6961040  51.0949430  24.2470040  16.9126560  52.4890370
  26.2106310  32.3617800  53.2933580  27.1057100  32.7002770  53.3152340
  26.2423940  31.6397210  52.6657860  19.8502470  27.7344850  51.5220580
  20.2877340  28.2774520  52.1778160  20.3350200  26.9091800  51.5316920
  17.0648270  30.5233880  58.9740840  17.3951280  29.6554940  58.7419480
  17.4939270  30.7292400  59.8045800  21.6610190  28.8542890  56.6342810
  21.3605730  28.7307860  57.5346720  21.5547680  27.9951480  56.2258540
  34.4302110  28.6339290  51.3369490  33.5995070  28.7015940  51.8076720
  34.6073940  29.5243410  51.0336350  33.8858570  25.3786770  53.8403690
  34.6477480  25.9483420  53.9463380  33.9012940  24.8113970  54.6112000
  17.3862910  23.9024700  58.0711350  16.7311750  23.6336340  57.4271050
  18.2240860  23.7929180  57.6213330  34.8918540  26.2336870  58.6845620
  35.2627370  25.4504190  58.2781590  35.5320470  26.9225970  58.5062920
  33.9377740  25.6721140  50.9976210  34.2126580  26.5800020  50.8695430
  33.7488480  25.6083670  51.9338200  30.3353350  18.6965990  52.2929840
  30.7538230  18.5096970  51.4526500  30.0289410  17.8445040  52.6032770
  33.8343080  23.6090130  55.9905640  33.4586680  22.8418060  55.5586930
  33.1046200  23.9912830  56.4780570  16.6000990  21.1123630  54.0136680
  15.6965070  21.3753830  53.8388340  17.0841610  21.3834800  53.2336640
  33.1094040  21.8347620  59.2912880  33.6331520  21.3410270  58.6603050
  33.6953460  21.9697980  60.0360450  19.1428200  20.1689170  51.9231060
  19.8519900  19.7472390  51.4378340  18.4268140  20.2364400  51.2914410
  18.7902360  16.2228500  50.9633710  19.5130490  16.7637440  51.2814930
  19.0626880  15.9491920  50.0875250  32.5994010  21.0920970  55.2305290
  33.0953130  20.8591840  56.0154170  32.4010080  20.2532810  54.8142930
  18.4794550  15.4734690  60.8656330  19.1270740  14.9232070  60.4251490
  18.8996390  15.7277840  61.6872140  34.0281170  19.7281920  57.7642970
  33.9180450  19.5737960  58.7025240  34.7888760  19.2002860  57.5218380
  34.9171440  17.5589840  51.0049110  35.8420750  17.4271020  50.7967400
  34.8947230  17.6382660  51.9585560  34.9909930  18.3300500  53.6305820
  34.1961430  18.2645620  54.1598730  35.1953210  19.2651140  53.6191170
  31.9328350  32.3692050  57.6244210  32.5287420  32.0476620  56.9478630
  32.1906500  31.8963870  58.4157480  32.4840560  33.0187350  61.4541940
  32.0243530  33.7703160  61.0799960  31.8553020  32.2993820  61.3956740
  22.9136280  31.3275590  60.6290070  23.4301300  30.7162950  60.1038330
  23.5633660  31.8304370  61.1201080  31.4229860  16.6597380  60.0804650
  31.8637950  16.6042480  59.2326250  31.1537450  17.5755390  60.1514830
  33.2868430  16.2912620  58.0913470  33.2256830  15.3473840  57.9444490
  34.0660460  16.3992710  58.6366930  17.5921180  32.4304980  57.0537420
  17.4243220  31.7975660  57.7519310  16.7255690  32.6364380  56.7031610
  18.2149200  16.2621760  54.5569280  18.9728560  16.3750640  53.9833310
  17.7526370  17.0990960  54.5112710  24.7563010  18.3761030  57.5471590
  23.9437520  18.0017920  57.2067470  25.2604650  17.6206110  57.8492780
  29.2587990  15.0403480  58.7854660  29.8617360  15.6123690  59.2603180
  28.5180980  15.6042920  58.5628560  32.4022590  15.4425040  54.0594940
  32.5973220  16.3408490  54.3262370  31.6152460  15.2112120  54.5527890
  19.1983880  31.1238210  54.4987560  18.6731500  31.5046240  53.7949520
  19.1228460  31.7488980  55.2197270  20.5874350  16.7885810  53.0971250
  21.1167110  16.0015610  52.9679200  21.2202670  17.4677000  53.3306780
  22.7812190  16.5260950  56.1516640  22.1514930  15.8248260  56.3186770
  22.2417330  17.2865080  55.9349800  33.9549200  32.6825750  55.8201500
  34.1301390  31.9963490  55.1762420  33.2570770  33.2072800  55.4278170
  21.7976850  33.0720590  53.3736810  22.5295670  32.7879870  52.8260700
  22.0570520  32.8333870  54.2636190  20.9591640  29.1885320  53.3783140
  20.3300520  29.6570420  53.9268970  21.0739470  28.3434540  53.8129330
  35.0897230  20.0114760  45.1404670  34.3849400  20.3996470  44.6219780
  35.3555150  20.7065050  45.7425600  30.4970230  21.4854030  44.6914960
  30.0841410  22.3107740  44.9454950  29.7646180  20.8999070  44.4991320
  32.8125510  15.7999110  32.5962940  32.4998170  15.8925940  33.4962010
  33.5737980  16.3780140  32.5460370  34.7669540  31.2925300  50.4487330
  35.2429260  31.7708190  51.1276410  35.3876700  31.2242790  49.7232830
  34.0226800  20.5370610  48.5737080  33.4071070  21.0450280  48.0452540
  33.7023220  19.6368940  48.5163020  31.0845630  20.5971450  47.1695930
  30.2339220  20.2977200  47.4905000  30.9247420  20.8413460  46.2579750
  25.7340330  19.0261770  50.0535990  25.0438650  18.8333970  50.6882080
  26.4772630  19.3096410  50.5860290  16.6482560  20.8075380  32.2272050
  16.5657230  21.7506140  32.3687040  16.2965620  20.6650290  31.3484400
  31.8999960  15.7326070  48.1399230  32.2245730  15.0015730  48.6657210
  31.9356470  15.4139710  47.2380220  33.3504540  25.3788150  46.7326640
  32.6252730  25.9716930  46.5356030  33.8780000  25.3711690  45.9340010
  28.6639110  19.4643120  44.9336930  29.0319930  18.6438330  45.2616500
  27.8037310  19.5245010  45.3492580  32.8307960  18.3350670  46.0003290
  32.3281560  19.0756070  46.3397100  33.6464620  18.7234670  45.6840080
  19.6031360  32.0269980  49.9821620  20.4044090  32.3482030  50.3957020
  19.0883180  31.6665560  50.7041530  28.4395990  28.1349850  49.9297030
  27.8334150  28.1581450  49.1892780  28.1350100  27.4032890  50.4664280
  31.5190460  27.6519760  49.0168210  32.2599930  27.9895520  48.5135670
  30.7563140  27.8211820  48.4637980  30.1936120  25.7034590  47.5523420
  30.6077140  25.8579670  48.4013840  29.2587120  25.8289810  47.7149200
  30.6658290  23.0430750  49.5562570  31.2479060  22.2883070  49.4683050
  30.8420060  23.5738190  48.7794050  21.7830360  18.2027500  47.8679520
  21.6887230  17.5848250  47.1430390  21.2027750  18.9293790  47.6409430
  28.8777450  19.5458410  48.3966030  28.1892970  18.8839950  48.3316020
  29.5983470  19.0996680  48.8414490  33.2242700  22.7561650  46.8501670
  32.9928790  22.5274400  45.9499620  33.4847250  23.6761200  46.8046560
  31.6630770  17.9818080  49.6281370  32.5400950  17.9901480  50.0115370
  31.6751610  17.2448920  49.0173720  16.6000990  21.1123630  35.2393190
  15.6965070  21.3753830  35.0644850  17.0841610  21.3834800  34.4593150
  18.7902360  16.2228500  32.1890220  19.5130490  16.7637440  32.5071440
  19.0626880  15.9491920  31.3131760  18.4794550  15.4734690  42.0912840
  19.1270740  14.9232070  41.6508000  18.8996390  15.7277840  42.9128650
  32.3746890  15.6676050  45.4482480  33.0119110  16.2810190  45.8141670
  32.5221780  15.7036710  44.5031710  25.7451370  16.8202240  48.3557580
  25.6840260  17.4124070  49.1052990  26.6851750  16.7128200  48.2107840
  28.3825930  16.4772300  47.9949870  28.9966340  16.7951590  47.3330950
  28.9275490  15.9920890  48.6145730  18.9047190  15.1566560  48.1088930
  19.4530180  14.9754610  47.3455040  18.9702500  14.3660670  48.6445240
  29.1233970  15.0404440  44.3219160  28.2493810  15.3739550  44.1192090
  29.0144720  14.5677620  45.1471030  30.0305950  17.2475310  45.7060880
  29.7019310  16.4327070  45.3262610  30.9788250  17.2045120  45.5826570
  31.4229860  16.6597380  41.3061160  31.8637950  16.6042480  40.4582760
  31.1537450  17.5755390  41.3771340  18.2149200  16.2621760  35.7825790
  18.9728560  16.3750640  35.2089820  17.7526370  17.0990960  35.7369220
  22.9067750  15.8044930  49.8125640  22.6252020  16.3078530  49.0486460
  23.2887450  15.0066680  49.4467770  29.5083210  15.2198510  50.3906110
  29.3948660  15.5393120  51.2857630  30.3252950  15.6211020  50.0943390
  18.9717180  20.2891700  17.2968270  18.0833880  20.6307670  17.1948150
  19.2558370  20.0892020  16.4049100  18.1775060  18.2981710  24.9676900
  17.9977900  17.4007460  25.2479660  17.7755140  18.8453580  25.6423850
  21.1478570  18.8723200  18.3306650  21.2545320  19.7726930  18.6375410
  20.2370930  18.8241170  18.0401300  17.0276690  27.2783970  15.8024780
  16.6504670  27.7671070  15.0709680  17.2849760  27.9509250  16.4331310
  24.6365620  15.6800360  21.2610290  24.9440600  15.1247250  20.5445790
  23.7066320  15.8144820  21.0783280  22.6303020  24.2713930  20.7790140
  22.2260020  23.5591180  20.2836040  22.7166140  23.9267170  21.6678180
  32.8125510  15.7999110  13.8219450  32.4998170  15.8925940  14.7218520
  33.5737980  16.3780140  13.7716880  19.3307650  23.1658910  18.2796790
  19.2105250  23.8921000  17.6678060  19.0208540  22.3961820  17.8024700
  18.2140650  28.0374240  20.4971610  17.8068730  28.1788830  19.6425210
  19.1053660  27.7534400  20.2942820  21.7971310  16.5093980  21.6620460
  21.3539460  17.2903520  21.3304980  22.3556300  16.8323870  22.3691400
  24.9130130  16.1304680  16.5426290  24.2884310  16.1264550  17.2679600
  24.8260250  15.2635640  16.1462260  21.5885530  21.6327550  19.3901710
  21.3626450  21.4164720  20.2948330  20.8078060  22.0656010  19.0447680
  16.4612330  16.8655260  22.2425840  16.1725380  17.4358120  22.9550820
  17.2058090  16.3859710  22.6057070  16.6482560  20.8075380  13.4528560
  16.5657230  21.7506140  13.5943550  16.2965620  20.6650290  12.5740910
  20.2983070  19.4240900  21.4793120  19.9583120  19.9016130  22.2360170
  19.5360390  18.9706020  21.1194220  23.5222340  22.8527630  14.9088970
  22.9539240  22.4045880  14.2824880  24.2311340  23.2120410  14.3754120
  17.6129150  18.3459880  20.3957790  17.3276070  17.9815550  21.2336410
  17.5508010  17.6140340  19.7820930  21.0669820  26.8485820  17.1815380
  20.2932080  26.3083440  17.0214100  21.7964450  26.3292430  16.8433140
  17.1059810  23.4818830  14.3554490  17.9754660  23.7643630  14.6390410
  16.6150130  24.2954700  14.2403300  20.1706400  15.2129690  18.9485290
  20.0421030  15.2047590  19.8970210  19.3468420  15.5512780  18.5976300
  17.4731060  32.6946210  14.9216120  17.8328700  33.2935550  14.2673390
  17.3323400  33.2406100  15.6951150  17.1700330  16.9720810  28.4091990
  16.4558850  17.1717730  29.0144600  17.5895370  16.1960380  28.7806790
  23.4899680  30.0777410  15.7389790  23.4809780  30.8107100  15.1234300
  22.5698040  29.8308990  15.8316750  19.0906320  25.2992300  16.4836550
  18.4834270  26.0391200  16.4931850  19.5655670  25.3891660  15.6574750
  26.4759280  30.1405650  14.4014980  26.5771260  29.9369640  13.4716960
  25.5761020  29.8863930  14.6062760  22.2020190  19.0071090  15.7589590
  23.0510720  19.4441240  15.6929780  21.8351460  19.3191350  16.5861650
  21.1011610  25.2603450  14.2325120  21.8674880  25.1484810  14.7950550
  21.1786300  24.5641420  13.5801890  19.7958370  22.6928520  14.9158010
  19.8761960  21.7456030  15.0275410  20.6878120  23.0235400  15.0218670
  17.4818560  28.9097480  17.8934060  16.5558340  29.1518620  17.8839470
  17.9474990  29.7371740  17.7718810  23.7075390  32.0154220  13.8418120
  24.5004000  32.3043050  13.3899910  23.1879740  31.5846390  13.1630600
  24.2252790  27.2357630  13.7060470  24.1203430  26.6209980  14.4321850
  24.0577010  26.7123520  12.9223480  25.6458280  24.2806190  13.4544860
  26.1663940  23.5655210  13.0886010  26.2926680  24.9192060  13.7545370
  22.0289540  21.3301810  13.1525920  21.8278600  20.4669170  13.5139260
  21.8581590  21.2435170  12.2147520  29.5077850  16.1410040  15.6812800
  29.7880140  15.2977940  16.0372220  28.7343580  16.3733150  16.1951550
  20.8272340  18.4302430  13.1403800  21.1298240  18.4369860  12.2322950
  21.5666930  18.0800290  13.6371460  24.0457270  17.3737050  14.1260000
  23.6979270  16.6961040  13.5462450  24.2470040  16.9126560  14.9403390
  19.8502470  27.7344850  13.9733600  20.2877340  28.2774520  14.6291180
  20.3350200  26.9091800  13.9829940  17.0648270  30.5233880  21.4253860
  17.3951280  29.6554940  21.1932500  17.4939270  30.7292400  22.2558820
  21.6610190  28.8542890  19.0855830  21.3605730  28.7307860  19.9859740
  21.5547680  27.9951480  18.6771560  17.3862910  23.9024700  20.5224370
  16.7311750  23.6336340  19.8784070  18.2240860  23.7929180  20.0726350
  16.6000990  21.1123630  16.4649700  15.6965070  21.3753830  16.2901360
  17.0841610  21.3834800  15.6849660  19.1428200  20.1689170  14.3744080
  19.8519900  19.7472390  13.8891360  18.4268140  20.2364400  13.7427430
  18.7902360  16.2228500  13.4146730  19.5130490  16.7637440  13.7327950
  19.0626880  15.9491920  12.5388270  18.4794550  15.4734690  23.3169350
  19.1270740  14.9232070  22.8764510  18.8996390  15.7277840  24.1385160
  34.9171440  17.5589840  13.4562130  35.8420750  17.4271020  13.2480420
  34.8947230  17.6382660  14.4098580  18.2326550  15.6290360  26.0594670
  17.8841370  16.0854180  26.8252850  17.9014250  14.7347490  26.1417100
  18.9047190  15.1566560  29.3345440  19.4530180  14.9754610  28.5711550
  18.9702500  14.3660670  29.8701750  17.5921180  32.4304980  19.5050440
  17.4243220  31.7975660  20.2032330  16.7255690  32.6364380  19.1544630
  18.2149200  16.2621760  17.0082300  18.9728560  16.3750640  16.4346330
  17.7526370  17.0990960  16.9625730  24.7563010  18.3761030  19.9984610
  23.9437520  18.0017920  19.6580490  25.2604650  17.6206110  20.3005800
  19.1983880  31.1238210  16.9500580  18.6731500  31.5046240  16.2462540
  19.1228460  31.7488980  17.6710290  20.5874350  16.7885810  15.5484270
  21.1167110  16.0015610  15.4192220  21.2202670  17.4677000  15.7819800
  22.7812190  16.5260950  18.6029660  22.1514930  15.8248260  18.7699790
  22.2417330  17.2865080  18.3862820  22.9067750  15.8044930  31.0382150
  22.6252020  16.3078530  30.2742970  23.2887450  15.0066680  30.6724280
  20.9591640  29.1885320  15.8296160  20.3300520  29.6570420  16.3781990
  21.0739470  28.3434540  16.2642350  26.5459400  25.0170000   3.8606630
  25.7701500  24.5370440   4.1505200  27.1972330  24.3375650   3.6862790
  20.5625230  25.3289810   4.7382390  19.7310110  25.0738520   5.1378900
  21.1706210  25.4000580   5.4740310  30.5666830  29.4230190   2.6405760
  30.1048360  28.6517430   2.9692930  31.3792380  29.4496260   3.1458210
  20.5426490  29.3629900   4.9340410  20.8454530  28.4727640   4.7550630
  21.2870080  29.9200120   4.7062660  16.9350190  22.8897350   4.4064480
  17.5066300  22.1219550   4.4068120  16.9351730  23.1886110   3.4971090
  26.7930140  31.7088200   2.2609750  26.1741580  32.1645700   1.6904190
  27.6481920  31.8639660   1.8599450  25.9868390  27.6927190   3.8676790
  25.9176670  26.7517130   3.7065920  26.7488250  27.7828600   4.4399360
  18.1775060  18.2981710   6.1933410  17.9977900  17.4007460   6.4736170
  17.7755140  18.8453580   6.8680360  27.0173560  20.4997570   4.0945720
  27.3938380  19.6269450   3.9819390  26.9193070  20.8356270   3.2036160
  18.7961730  20.7942210   4.8015750  19.4771840  21.0580580   5.4203150
  18.4809780  19.9543080   5.1353760  22.9886300  21.8409570   3.8888340
  23.4964520  22.3390540   4.5293360  23.5199540  21.0644770   3.7127700
  35.0897230  20.0114760   7.5917690  34.3849400  20.3996470   7.0732800
  35.3555150  20.7065050   8.1938620  21.2722400  16.4808130   8.1551760
  21.2740840  16.9980520   7.3497660  20.4426710  16.0038310   8.1321690
  22.5225250  26.1203310   6.3325260  22.1894630  26.7472230   6.9746330
  22.6991930  26.6465190   5.5526930  31.0359160  19.9348390   3.8001600
  30.3314730  20.2233280   4.3804710  31.3971320  20.7448500   3.4401160
  20.9537730  18.1918090   6.1622210  21.2954540  19.0360140   5.8676080
  20.0153540  18.3401830   6.2787550  21.7344350  28.0884110   8.1474440
  22.3518350  28.7635190   7.8658890  20.8737470  28.4972090   8.0561940
  32.6521940  29.5523520   6.0629080  31.9685460  30.2222630   6.0545750
  33.1916230  29.7504170   5.2973940  34.1046080  19.3803180   4.1910810
  33.1570990  19.4142160   4.3226240  34.4296070  20.1942130   4.5760170
  24.6365620  15.6800360   2.4866800  24.9440600  15.1247250   1.7702300
  23.7066320  15.8144820   2.3039790  30.1880680  31.3967650   4.7774260
  30.2007840  30.9929940   3.9096520  29.6355900  32.1714940   4.6735690
  29.5866120  26.2997490   6.1056870  30.0034910  26.0857600   5.2710330
  30.3105940  26.5570280   6.6765490  33.5328220  24.6984710   6.1973110
  32.7046850  24.7677800   5.7223240  34.1278700  25.2839020   5.7288940
  30.4970230  21.4854030   7.1427980  30.0841410  22.3107740   7.3967970
  29.7646180  20.8999070   6.9504340  23.0984720  27.9581490   4.1685860
  22.8013010  27.3526960   3.4893640  24.0484540  27.9958800   4.0575220
  21.3431640  21.0457140   5.7845690  21.8946230  21.1552480   5.0098940
  21.8575150  21.4194740   6.5000920  31.1870330  31.5313360   7.8308960
  30.7100890  32.3385550   7.6381570  30.5032120  30.8791690   7.9835170
  22.1903150  27.6963180  10.8193660  21.2931680  27.9203150  11.0667060
  22.2156020  27.8198120   9.8705060  21.0174370  24.5676500   9.3951030
  20.8782140  25.4399300   9.7638430  20.1355730  24.2249310   9.2498970
  22.8154720  30.5098200  11.6036180  22.7870150  30.9141150  10.7364610
  22.6519690  29.5808560  11.4407780  16.9693020  26.3374050   5.3121940
  17.0473440  26.4722820   4.3677660  17.5834700  25.6289940   5.5050060
  34.1702790  28.4838150  10.0600360  34.2965850  28.2450030   9.1417540
  34.2124170  27.6522690  10.5322440  28.0319530  32.1866150   8.6295170
  28.5464200  32.0974160   9.4317600  27.1888610  32.5325850   8.9223080
  34.0226800  20.5370610  11.0250100  33.4071070  21.0450280  10.4965560
  33.7023220  19.6368940  10.9676040  17.0252540  27.3788220   7.8516400
  17.1883580  26.9093580   7.0335770  17.4904990  26.8711780   8.5165240
  21.7971310  16.5093980   2.8876970  21.3539460  17.2903520   2.5561490
  22.3556300  16.8323870   3.5947910  26.0841120  19.3762500   8.4912290
  25.6220490  19.5845520   9.3032230  25.6819230  18.5621850   8.1882960
  31.0845630  20.5971450   9.6208950  30.2339220  20.2977200   9.9418020
  30.9247420  20.8413460   8.7092770  28.1795340  22.0973200  11.7207740
  28.5048750  21.2636950  11.3809970  28.9675670  22.6201720  11.8686070
  23.8347210  17.0541310   4.7466570  24.1319540  17.9604140   4.6658590
  24.3832770  16.5660090   4.1326140  24.0284740  22.5313130  11.2818490
  23.9328340  21.5907860  11.1318890  24.8716720  22.7528200  10.8866560
  19.1595280  18.9426800   9.4352270  18.7658670  19.7902010   9.6425050
  18.4713680  18.3053170   9.6260910  25.7340330  19.0261770  12.5049010
  25.0438650  18.8333970  13.1395100  26.4772630  19.3096410  13.0373310
  16.4612330  16.8655260   3.4682350  16.1725380  17.4358120   4.1807330
  17.2058090  16.3859710   3.8313580  28.0103300  22.8660210   5.3402930
  27.2784420  23.3747020   5.6893030  27.6127640  22.0490190   5.0391710
  24.4480690  19.5414410   3.7455420  24.4516750  19.1004360   2.8959960
  25.3431810  19.8631740   3.8527240  20.2983070  19.4240900   2.7049630
  19.9583120  19.9016130   3.4616680  19.5360390  18.9706020   2.3450730
  28.4729210  18.3193890   4.7525870  28.4901950  18.7702540   5.5967720
  28.2244790  17.4199530   4.9659310  31.8999960  15.7326070  10.5912250
  32.2245730  15.0015730  11.1170230  31.9356470  15.4139710   9.6893240
  18.5991520  26.7539650  10.0112210  18.2146310  26.1133320  10.6095170
  18.9103710  27.4575770  10.5806940  24.7488660  23.6016190   5.4920830
  25.1158790  23.1274760   6.2382170  24.5593720  24.4757760   5.8329170
  22.5388030  22.6424830   7.8105040  22.2345100  23.5216810   8.0355400
  23.4934490  22.7024620   7.8462480  31.8257800  25.8451180   4.1998280
  32.5456920  26.3406470   3.8094390  31.6239620  25.1669070   3.5552150
  27.2076600  25.9160240  10.0867280  27.1413910  24.9955910   9.8324870
  26.5781740  26.0135680  10.8011920  21.1107220  26.5166200   2.0450700
  21.6285890  25.7134460   1.9907590  20.6591240  26.4545340   2.8867530
  18.5951760  23.4827570   8.9576400  18.2366700  24.1481420   9.5449740
  18.3006320  22.6511120   9.3289020  21.7964880  23.9411810  11.8415950
  21.4965020  24.0868990  10.9443770  22.5676120  23.3817100  11.7489340
  27.1393330  28.7380810   9.8371080  27.1537870  27.8061770   9.6189990
  26.4318430  28.8240570  10.4760850  33.3504540  25.3788150   9.1839660
  32.6252730  25.9716930   8.9869050  33.8780000  25.3711690   8.3853030
  28.8804130  27.1048320   2.6823510  29.2327950  26.5076450   2.0224880
  27.9966460  26.7792550   2.8531760  26.5727230  30.3798380   6.9311580
  27.2169450  30.5857760   7.6085000  26.9356670  29.6186780   6.4782430
  27.8459310  28.3830730   5.6489030  28.4881540  27.6823890   5.7621200
  28.3708660  29.1629170   5.4685920  29.6196930  29.1825630   8.8525090
  29.9553170  29.7692320   9.5303010  28.6997270  29.0518340   9.0822880
  17.1700330  16.9720810   9.6348500  16.4558850  17.1717730  10.2401110
  17.5895370  16.1960380  10.0063300  17.4572920  30.9601070  10.6215030
  17.5664040  30.0195810  10.4810420  16.8053480  31.2255820   9.9728760
  25.4485510  29.2316960  12.0213150  25.1282380  28.5126200  12.5658840
  24.7743870  29.9072030  12.0949210  28.6639110  19.4643120   7.3849950
  29.0319930  18.6438330   7.7129520  27.8037310  19.5245010   7.8005600
  25.6241100  22.1182710   7.6087920  26.1226350  22.5928530   8.2739770
  25.7664050  21.1946230   7.8157950  32.8307960  18.3350670   8.4516310
  32.3281560  19.0756070   8.7910120  33.6464620  18.7234670   8.1353100
  31.1229970  23.5783850   1.8977670  30.1820110  23.5934080   2.0725360
  31.4374040  22.7919810   2.3437970  33.1255550  30.7492700   3.5731930
  33.2502970  31.5723870   4.0455740  33.9921110  30.5383430   3.2256080
  20.5973080  32.8423910   3.2449060  21.3335560  32.2939370   3.5157630
  20.9814000  33.7079920   3.1055050  19.6031360  32.0269980  12.4334640
  20.4044090  32.3482030  12.8470040  19.0883180  31.6665560  13.1554550
  29.8696360  31.8630140  10.9919460  30.8218110  31.7788160  10.9419700
  29.7224580  32.5271850  11.6653250  17.3229170  24.5143440  11.3770690
  17.8268190  23.9350720  11.9486920  16.5836590  24.7983670  11.9147060
  24.3767110  25.9214430  10.9106210  23.6112780  26.4899430  10.8260880
  24.5583070  25.6290640  10.0174440  19.3552250  22.6573030  12.2720760
  19.3957590  22.3586900  13.1805990  20.2097750  23.0580640  12.1128280
  21.2958060  21.2365130  10.2395250  20.7654520  20.7456080   9.6118590
  21.9646130  21.6649330   9.7053180  30.1936120  25.7034590  10.0036440
  30.6077140  25.8579670  10.8526860  29.2587120  25.8289810  10.1662220
  30.6658290  23.0430750  12.0075590  31.2479060  22.2883070  11.9196070
  30.8420060  23.5738190  11.2307070  21.7830360  18.2027500  10.3192540
  21.6887230  17.5848250   9.5943410  21.2027750  18.9293790  10.0922450
  24.5491800  16.7600740   7.3519930  24.1009100  16.7825000   6.5065480
  23.9157000  16.3619760   7.9490230  24.9551350  25.6555070   7.9732370
  25.3739460  26.4987800   7.8008610  24.0359980  25.7927110   7.7439150
  27.2915250  23.3871250   9.3570210  27.4111460  22.7912390  10.0965050
  28.1509250  23.4240940   8.9371510  29.6303150  23.9408440   7.9332720
  29.1038370  24.4651060   7.3297860  29.9734490  24.5735830   8.5642450
  22.8058770  31.9608080   9.0890100  22.2679860  32.6854140   8.7698800
  23.0592730  31.4838420   8.2987440  24.0584020  19.9292600  10.6146030
  24.6483710  19.6208450  11.3023850  23.2404260  19.4572350  10.7705930
  28.8777450  19.5458410  10.8479050  28.1892970  18.8839950  10.7829040
  29.5983470  19.0996680  11.2927510  25.6620980  33.1959290   9.3476750
  25.5879680  34.0994430   9.6549120  24.7599820  32.8771190   9.3198820
  17.0648270  30.5233880   2.6510370  17.3951280  29.6554940   2.4189010
  17.4939270  30.7292400   3.4815330  17.5538480  31.3904470   5.3892000
  17.1169470  31.5705270   6.2216150  18.1216160  32.1479090   5.2473720
  33.1900660  30.8921470   9.6769310  32.5902650  30.9514030   8.9333230
  33.3194560  29.9526450   9.8066160  34.8918540  26.2336870   2.3615150
  35.2627370  25.4504190   1.9551120  35.5320470  26.9225970   2.1832450
  31.8752300  27.6173450   7.7745470  31.0612140  28.0470610   8.0371260
  32.2826500  28.2291860   7.1614520  18.4238840  24.2877270   6.2884220
  18.7911880  24.2004670   7.1680240  17.8549660  23.5243820   6.1891080
  33.2242700  22.7561650   9.3014690  32.9928790  22.5274400   8.4012640
  33.4847250  23.6761200   9.2559580  17.9754840  21.1986360  10.1942640
  17.0810890  21.1653120  10.5336350  18.5152390  21.3973150  10.9593890
  31.6630770  17.9818080  12.0794390  32.5400950  17.9901480  12.4628390
  31.6751610  17.2448920  11.4686740  33.1094040  21.8347620   2.9682410
  33.6331520  21.3410270   2.3372580  33.6953460  21.9697980   3.7129980
  33.2883760  21.9187490   6.4901960  32.3386470  21.8851030   6.6046950
  33.4696770  22.8287600   6.2551730  18.4794550  15.4734690   4.5425860
  19.1270740  14.9232070   4.1021020  18.8996390  15.7277840   5.3641670
  32.3746890  15.6676050   7.8995500  33.0119110  16.2810190   8.2654690
  32.5221780  15.7036710   6.9544730  18.2326550  15.6290360   7.2851180
  17.8841370  16.0854180   8.0509360  17.9014250  14.7347490   7.3673610
  19.8390920  28.8009960  11.4504370  19.7960550  28.4302870  12.3318830
  19.9701930  29.7387530  11.5906190  23.5396950  30.3569550   7.0514090
  23.2988310  30.6244110   6.1644610  24.4799590  30.5275280   7.1064950
  25.7451370  16.8202240  10.8070600  25.6840260  17.4124070  11.5566010
  26.6851750  16.7128200  10.6620860  28.3825930  16.4772300  10.4462890
  28.9966340  16.7951590   9.7843970  28.9275490  15.9920890  11.0658750
  34.8001110  32.3763930   7.8524730  34.3059390  32.7732800   7.1351860
  34.1914400  31.7513140   8.2462010  18.9047190  15.1566560  10.5601950
  19.4530180  14.9754610   9.7968060  18.9702500  14.3660670  11.0958260
  19.6778950  31.7472210   8.5702150  19.0839270  31.6156910   9.3092190
  19.6702790  30.9110350   8.1044250  29.1233970  15.0404440   6.7732180
  28.2493810  15.3739550   6.5705110  29.0144720  14.5677620   7.5984050
  30.0305950  17.2475310   8.1573900  29.7019310  16.4327070   7.7775630
  30.9788250  17.2045120   8.0339590  32.4840560  33.0187350   5.1311470
  32.0243530  33.7703160   4.7569490  31.8553020  32.2993820   5.0726270
  19.3091180  29.1130590   7.5210190  18.5825240  28.4935880   7.4536140
  19.3700330  29.5071200   6.6508270  22.9136280  31.3275590   4.3059600
  23.4301300  30.7162950   3.7807860  23.5633660  31.8304370   4.7970610
  25.6531780  32.2184080   5.1328580  25.9409590  31.9638380   4.2561590
  26.1655000  31.6661440   5.7234150  26.8708790  15.9574280   5.7125090
  26.0880580  16.4319780   5.9921850  26.5771720  15.0529110   5.6038270
  31.4229860  16.6597380   3.7574180  31.8637950  16.6042480   2.9095780
  31.1537450  17.5755390   3.8284360  33.2868430  16.2912620   1.7683000
  33.2256830  15.3473840   1.6214020  34.0660460  16.3992710   2.3136460
  29.2587990  15.0403480   2.4624190  29.8617360  15.6123690   2.9372710
  28.5180980  15.6042920   2.2398090  22.9067750  15.8044930  12.2638660
  22.6252020  16.3078530  11.4999480  23.2887450  15.0066680  11.8980790
  29.5083210  15.2198510  12.8419130  29.3948660  15.5393120  13.7370650
  30.3252950  15.6211020  12.5456410  28.4141360   4.4647490  58.3027830
  28.3335410   3.5502100  58.0319540  28.0005780   4.9614560  57.5967540
  26.5459400   6.2426510  60.1837100  25.7701500   5.7626950  60.4735670
  27.1972330   5.5632160  60.0093260  20.5625230   6.5546320  61.0612860
  19.7310110   6.2995030  61.4609370  21.1706210   6.6257090  61.7970780
  30.5666830  10.6486700  58.9636230  30.1048360   9.8773940  59.2923400
  31.3792380  10.6752770  59.4688680  20.5426490  10.5886410  61.2570880
  20.8454530   9.6984150  61.0781100  21.2870080  11.1456630  61.0293130
  16.9350190   4.1153860  60.7294950  17.5066300   3.3476060  60.7298590
  16.9351730   4.4142620  59.8201560  26.7930140  12.9344710  58.5840220
  26.1741580  13.3902210  58.0134660  27.6481920  13.0896170  58.1829920
  25.9868390   8.9183700  60.1907260  25.9176670   7.9773640  60.0296390
  26.7488250   9.0085110  60.7629830  22.9886300   3.0666080  60.2118810
  23.4964520   3.5647050  60.8523830  23.5199540   2.2901280  60.0358170
  27.6593490   7.8183950  55.9772130  27.0410760   8.2833400  55.4134850
  28.1716740   8.5111430  56.3941640  17.0276690   8.5040480  53.3511760
  16.6504670   8.9927580  52.6196660  17.2849760   9.1765760  53.9818290
  30.1880680  12.6224160  61.1004730  30.2007840  12.2186450  60.2326990
  29.6355900  13.3971450  60.9966160  31.4826100   9.3440380  56.1894900
  31.3722430   8.4014710  56.3144320  31.4794350   9.7056020  57.0757660
  27.0246380   4.9705700  55.5457390  26.0975660   4.9043080  55.7745860
  27.1771200   5.9085830  55.4312630  31.0543670   6.5326000  56.0492640
  30.4356090   6.1945550  55.4018940  31.0368120   5.8885760  56.7571830
  22.6303020   5.4970440  58.3277120  22.2260020   4.7847690  57.8323020
  22.7166140   5.1523680  59.2165160  23.0984720   9.1838000  60.4916330
  22.8013010   8.5783470  59.8124110  24.0484540   9.2215310  60.3805690
  29.2308370   5.7712810  53.0565390  29.6701650   4.9335240  52.9103210
  29.9436790   6.4042210  53.1429530  27.3403750  10.7108880  57.0246630
  27.7799660  11.4533210  56.6102020  27.2790640  10.9535450  57.9485590
  19.3307650   4.3915420  55.8283770  19.2105250   5.1177510  55.2165040
  19.0208540   3.6218330  55.3511680  16.9693020   7.5630560  61.6352410
  17.0473440   7.6979330  60.6908130  17.5834700   6.8546450  61.8280530
  18.2140650   9.2630750  58.0458590  17.8068730   9.4045340  57.1912190
  19.1053660   8.9790910  57.8429800  30.0073930  13.6978000  54.3809640
  29.8475070  13.4080940  55.2791470  29.8420640  12.9218130  53.8454870
  22.4862310  13.4776530  56.1581260  22.3104790  12.5612070  55.9449060
  21.6318050  13.8363820  56.3979060  29.7100060  11.2065560  52.9407640
  29.0165220  11.2042850  52.2809920  30.4522920  10.7824880  52.5101810
  29.2749990  12.8328270  57.0156130  29.7306940  12.0517650  57.3294750
  29.6142510  13.5435090  57.5597310  21.5885530   2.8584060  56.9388690
  21.3626450   2.6421230  57.8435310  20.8078060   3.2912520  56.5934660
  28.8183290   2.8647430  55.5379340  28.2192180   3.5883230  55.3542960
  29.3662900   2.8024210  54.7555790  16.6482560   2.0331890  51.0015540
  16.5657230   2.9762650  51.1430530  16.2965620   1.8906800  50.1227890
  24.5100840   1.7683000  53.0592650  24.6313660   1.7269480  54.0078470
  24.1249350   2.6307150  52.9039380  23.5222340   4.0784140  52.4575950
  22.9539240   3.6302390  51.8311860  24.2311340   4.4376920  51.9241100
  21.0669820   8.0742330  54.7302360  20.2932080   7.5339950  54.5701080
  21.7964450   7.5548940  54.3920120  31.8257800   7.0707690  60.5228750
  32.5456920   7.5662980  60.1324860  31.6239620   6.3925580  59.8782620
  30.0016130   2.8365300  52.9620300  30.8895750   3.1482530  52.7871640
  29.9721220   1.9637550  52.5700880  21.1107220   7.7422710  58.3681170
  21.6285890   6.9390970  58.3138060  20.6591240   7.6801850  59.2098000
  25.9976720   9.0088990  53.6408470  26.3392420   9.7531220  53.1451790
  25.1689430   9.3220110  54.0033300  32.2730400   4.1477140  52.4300160
  32.1894120   4.5791360  51.5796600  32.9924590   4.6075490  52.8626980
  33.3017650  11.0019400  55.1582290  32.6593810  10.3475020  55.4326010
  32.9148310  11.4074490  54.3822960  28.8804130   8.3304830  59.0053980
  29.2327950   7.7332960  58.3455350  27.9966460   8.0049060  59.1762230
  24.9667410   9.0902520  56.4124390  25.6538540   9.6371730  56.7931980
  24.1799830   9.6343250  56.4474000  17.1059810   4.7075340  51.9041470
  17.9754660   4.9900140  52.1877390  16.6150130   5.5211210  51.7890280
  24.2694620   6.0948550  56.0249750  24.7257400   6.9053800  56.2509940
  23.9182830   5.7771690  56.8568240  31.6915030   9.8935860  51.6958640
  31.4652610   9.1766300  52.2883280  31.3011230   9.6448300  50.8580390
  17.4731060  13.9202720  52.4703100  17.8328700  14.5192060  51.8160370
  17.3323400  14.4662610  53.2438130  31.2731280   7.8107800  53.3572800
  30.9852980   8.2720490  54.1450680  32.0683450   7.3505570  53.6257020
  23.4899680  11.3033920  53.2876770  23.4809780  12.0363610  52.6721280
  22.5698040  11.0565500  53.3803730  19.0906320   6.5248810  54.0323530
  18.4834270   7.2647710  54.0418830  19.5655670   6.6148170  53.2061730
  26.4759280  11.3662160  51.9501960  26.5771260  11.1626150  51.0203940
  25.5761020  11.1120440  52.1549740  25.1177390  13.8848480  56.6449630
  25.3718890  13.8469870  55.7229000  24.1689870  13.7581810  56.6377880
  31.1229970   4.8040360  58.2208140  30.1820110   4.8190590  58.3955830
  31.4374040   4.0176320  58.6668440  21.1011610   6.4859960  51.7812100
  21.8674880   6.3741320  52.3437530  21.1786300   5.7897930  51.1288870
  19.7958370   3.9185030  52.4644990  19.8761960   2.9712540  52.5762390
  20.6878120   4.2491910  52.5705650  33.1255550  11.9749210  59.8962400
  33.2502970  12.7980380  60.3686210  33.9921110  11.7639940  59.5486550
  20.5973080  14.0680420  59.5679530  21.3335560  13.5195880  59.8388100
  20.9814000  14.9336430  59.4285520  17.4818560  10.1353990  55.4421040
  16.5558340  10.3775130  55.4326450  17.9474990  10.9628250  55.3205790
  23.7075390  13.2410730  51.3905100  24.5004000  13.5299560  50.9386890
  23.1879740  12.8102900  50.7117580  32.7605560  12.4680860  52.8141840
  32.4747070  12.0546000  51.9996020  32.5625110  13.3968570  52.6942360
  24.2252790   8.4614140  51.2547450  24.1203430   7.8466490  51.9808830
  24.0577010   7.9380030  50.4710460  27.4655520   7.5234170  51.8589440
  26.9165620   7.9703470  52.5032180  28.0874780   7.0183420  52.3827110
  23.1330640   6.4825090  53.7554740  23.5547060   6.3164960  54.5986130
  23.2581480   5.6725320  53.2609880  25.6458280   5.5062700  51.0031840
  26.1663940   4.7911720  50.6372990  26.2926680   6.1448570  51.3032350
  22.0289540   2.5558320  50.7012900  21.8278600   1.6925680  51.0626240
  21.8581590   2.4691680  49.7634500  26.2106310  13.5874310  53.2933580
  27.1057100  13.9259280  53.3152340  26.2423940  12.8653720  52.6657860
  19.8502470   8.9601360  51.5220580  20.2877340   9.5031030  52.1778160
  20.3350200   8.1348310  51.5316920  17.0648270  11.7490390  58.9740840
  17.3951280  10.8811450  58.7419480  17.4939270  11.9548910  59.8045800
  21.6610190  10.0799400  56.6342810  21.3605730   9.9564370  57.5346720
  21.5547680   9.2207990  56.2258540  34.4302110   9.8595800  51.3369490
  33.5995070   9.9272450  51.8076720  34.6073940  10.7499920  51.0336350
  33.8858570   6.6043280  53.8403690  34.6477480   7.1739930  53.9463380
  33.9012940   6.0370480  54.6112000  17.3862910   5.1281210  58.0711350
  16.7311750   4.8592850  57.4271050  18.2240860   5.0185690  57.6213330
  34.8918540   7.4593380  58.6845620  35.2627370   6.6760700  58.2781590
  35.5320470   8.1482480  58.5062920  33.9377740   6.8977650  50.9976210
  34.2126580   7.8056530  50.8695430  33.7488480   6.8340180  51.9338200
  33.8343080   4.8346640  55.9905640  33.4586680   4.0674570  55.5586930
  33.1046200   5.2169340  56.4780570  16.6000990   2.3380140  54.0136680
  15.6965070   2.6010340  53.8388340  17.0841610   2.6091310  53.2336640
  33.1094040   3.0604130  59.2912880  33.6331520   2.5666780  58.6603050
  33.6953460   3.1954490  60.0360450  31.9328350  13.5948560  57.6244210
  32.5287420  13.2733130  56.9478630  32.1906500  13.1220380  58.4157480
  32.4840560  14.2443860  61.4541940  32.0243530  14.9959670  61.0799960
  31.8553020  13.5250330  61.3956740  22.9136280  12.5532100  60.6290070
  23.4301300  11.9419460  60.1038330  23.5633660  13.0560880  61.1201080
  17.5921180  13.6561490  57.0537420  17.4243220  13.0232170  57.7519310
  16.7255690  13.8620890  56.7031610  19.1983880  12.3494720  54.4987560
  18.6731500  12.7302750  53.7949520  19.1228460  12.9745490  55.2197270
  33.9549200  13.9082260  55.8201500  34.1301390  13.2220000  55.1762420
  33.2570770  14.4329310  55.4278170  21.7976850  14.2977100  53.3736810
  22.5295670  14.0136380  52.8260700  22.0570520  14.0590380  54.2636190
  20.9591640  10.4141830  53.3783140  20.3300520  10.8826930  53.9268970
  21.0739470   9.5691050  53.8129330  28.4141360   4.4647490  39.5284340
  28.3335410   3.5502100  39.2576050  28.0005780   4.9614560  38.8224050
  26.5459400   6.2426510  41.4093610  25.7701500   5.7626950  41.6992180
  27.1972330   5.5632160  41.2349770  20.5625230   6.5546320  42.2869370
  19.7310110   6.2995030  42.6865880  21.1706210   6.6257090  43.0227290
  30.5666830  10.6486700  40.1892740  30.1048360   9.8773940  40.5179910
  31.3792380  10.6752770  40.6945190  20.5426490  10.5886410  42.4827390
  20.8454530   9.6984150  42.3037610  21.2870080  11.1456630  42.2549640
  16.9350190   4.1153860  41.9551460  17.5066300   3.3476060  41.9555100
  16.9351730   4.4142620  41.0458070  25.9868390   8.9183700  41.4163770
  25.9176670   7.9773640  41.2552900  26.7488250   9.0085110  41.9886340
  22.9886300   3.0666080  41.4375320  23.4964520   3.5647050  42.0780340
  23.5199540   2.2901280  41.2614680  27.6593490   7.8183950  37.2028640
  27.0410760   8.2833400  36.6391360  28.1716740   8.5111430  37.6198150
  22.5225250   7.3459820  43.8812240  22.1894630   7.9728740  44.5233310
  22.6991930   7.8721700  43.1013910  21.7344350   9.3140620  45.6961420
  22.3518350   9.9891700  45.4145870  20.8737470   9.7228600  45.6048920
  17.0276690   8.5040480  34.5768270  16.6504670   8.9927580  33.8453170
  17.2849760   9.1765760  35.2074800  32.6521940  10.7780030  43.6116060
  31.9685460  11.4479140  43.6032730  33.1916230  10.9760680  42.8460920
  30.1880680  12.6224160  42.3261240  30.2007840  12.2186450  41.4583500
  29.6355900  13.3971450  42.2222670  31.4826100   9.3440380  37.4151410
  31.3722430   8.4014710  37.5400830  31.4794350   9.7056020  38.3014170
  29.5866120   7.5254000  43.6543850  30.0034910   7.3114110  42.8197310
  30.3105940   7.7826790  44.2252470  27.0246380   4.9705700  36.7713900
  26.0975660   4.9043080  37.0002370  27.1771200   5.9085830  36.6569140
  33.5328220   5.9241220  43.7460090  32.7046850   5.9934310  43.2710220
  34.1278700   6.5095530  43.2775920  31.0543670   6.5326000  37.2749150
  30.4356090   6.1945550  36.6275450  31.0368120   5.8885760  37.9828340
  30.4970230   2.7110540  44.6914960  30.0841410   3.5364250  44.9454950
  29.7646180   2.1255580  44.4991320  22.6303020   5.4970440  39.5533630
  22.2260020   4.7847690  39.0579530  22.7166140   5.1523680  40.4421670
  23.0984720   9.1838000  41.7172840  22.8013010   8.5783470  41.0380620
  24.0484540   9.2215310  41.6062200  21.3431640   2.2713650  43.3332670
  21.8946230   2.3808990  42.5585920  21.8575150   2.6451250  44.0487900
  31.1870330  12.7569870  45.3795940  30.7100890  13.5642060  45.1868550
  30.5032120  12.1048200  45.5322150  22.1903150   8.9219690  48.3680640
  21.2931680   9.1459660  48.6154040  22.2156020   9.0454630  47.4192040
  29.2308370   5.7712810  34.2821900  29.6701650   4.9335240  34.1359720
  29.9436790   6.4042210  34.3686040  21.0174370   5.7933010  46.9438010
  20.8782140   6.6655810  47.3125410  20.1355730   5.4505820  46.7985950
  27.3403750  10.7108880  38.2503140  27.7799660  11.4533210  37.8358530
  27.2790640  10.9535450  39.1742100  22.8154720  11.7354710  49.1523160
  22.7870150  12.1397660  48.2851590  22.6519690  10.8065070  48.9894760
  19.3307650   4.3915420  37.0540280  19.2105250   5.1177510  36.4421550
  19.0208540   3.6218330  36.5768190  34.7669540  12.5181810  50.4487330
  35.2429260  12.9964700  51.1276410  35.3876700  12.4499300  49.7232830
  16.9693020   7.5630560  42.8608920  17.0473440   7.6979330  41.9164640
  17.5834700   6.8546450  43.0537040  18.2140650   9.2630750  39.2715100
  17.8068730   9.4045340  38.4168700  19.1053660   8.9790910  39.0686310
  34.1702790   9.7094660  47.6087340  34.2965850   9.4706540  46.6904520
  34.2124170   8.8779200  48.0809420  28.0319530  13.4122660  46.1782150
  28.5464200  13.3230670  46.9804580  27.1888610  13.7582360  46.4710060
  29.7100060  11.2065560  34.1664150  29.0165220  11.2042850  33.5066430
  30.4522920  10.7824880  33.7358320  29.2749990  12.8328270  38.2412640
  29.7306940  12.0517650  38.5551260  29.6142510  13.5435090  38.7853820
  17.0252540   8.6044730  45.4003380  17.1883580   8.1350090  44.5822750
  17.4904990   8.0968290  46.0652220  28.1795340   3.3229710  49.2694720
  28.5048750   2.4893460  48.9296950  28.9675670   3.8458230  49.4173050
  21.5885530   2.8584060  38.1645200  21.3626450   2.6421230  39.0691820
  20.8078060   3.2912520  37.8191170  28.8183290   2.8647430  36.7635850
  28.2192180   3.5883230  36.5799470  29.3662900   2.8024210  35.9812300
  24.0284740   3.7569640  48.8305470  23.9328340   2.8164370  48.6805870
  24.8716720   3.9784710  48.4353540  16.6482560   2.0331890  32.2272050
  16.5657230   2.9762650  32.3687040  16.2965620   1.8906800  31.3484400
  28.0103300   4.0916720  42.8889910  27.2784420   4.6003530  43.2380010
  27.6127640   3.2746700  42.5878690  24.5100840   1.7683000  34.2849160
  24.6313660   1.7269480  35.2334980  24.1249350   2.6307150  34.1295890
  23.5222340   4.0784140  33.6832460  22.9539240   3.6302390  33.0568370
  24.2311340   4.4376920  33.1497610  18.5991520   7.9796160  47.5599190
  18.2146310   7.3389830  48.1582150  18.9103710   8.6832280  48.1293920
  24.7488660   4.8272700  43.0407810  25.1158790   4.3531270  43.7869150
  24.5593720   5.7014270  43.3816150  22.5388030   3.8681340  45.3592020
  22.2345100   4.7473320  45.5842380  23.4934490   3.9281130  45.3949460
  21.0669820   8.0742330  35.9558870  20.2932080   7.5339950  35.7957590
  21.7964450   7.5548940  35.6176630  31.8257800   7.0707690  41.7485260
  32.5456920   7.5662980  41.3581370  31.6239620   6.3925580  41.1039130
  27.2076600   7.1416750  47.6354260  27.1413910   6.2212420  47.3811850
  26.5781740   7.2392190  48.3498900  30.0016130   2.8365300  34.1876810
  30.8895750   3.1482530  34.0128150  29.9721220   1.9637550  33.7957390
  21.1107220   7.7422710  39.5937680  21.6285890   6.9390970  39.5394570
  20.6591240   7.6801850  40.4354510  25.9976720   9.0088990  34.8664980
  26.3392420   9.7531220  34.3708300  25.1689430   9.3220110  35.2289810
  18.5951760   4.7084080  46.5063380  18.2366700   5.3737930  47.0936720
  18.3006320   3.8767630  46.8776000  21.7964880   5.1668320  49.3902930
  21.4965020   5.3125500  48.4930750  22.5676120   4.6073610  49.2976320
  27.1393330   9.9637320  47.3858060  27.1537870   9.0318280  47.1676970
  26.4318430  10.0497080  48.0247830  32.2730400   4.1477140  33.6556670
  32.1894120   4.5791360  32.8053110  32.9924590   4.6075490  34.0883490
  33.3504540   6.6044660  46.7326640  32.6252730   7.1973440  46.5356030
  33.8780000   6.5968200  45.9340010  33.3017650  11.0019400  36.3838800
  32.6593810  10.3475020  36.6582520  32.9148310  11.4074490  35.6079470
  28.8804130   8.3304830  40.2310490  29.2327950   7.7332960  39.5711860
  27.9966460   8.0049060  40.4018740  24.9667410   9.0902520  37.6380900
  25.6538540   9.6371730  38.0188490  24.1799830   9.6343250  37.6730510
  17.1059810   4.7075340  33.1297980  17.9754660   4.9900140  33.4133900
  16.6150130   5.5211210  33.0146790  24.2694620   6.0948550  37.2506260
  24.7257400   6.9053800  37.4766450  23.9182830   5.7771690  38.0824750
  26.5727230  11.6054890  44.4798560  27.2169450  11.8114270  45.1571980
  26.9356670  10.8443290  44.0269410  27.8459310   9.6087240  43.1976010
  28.4881540   8.9080400  43.3108180  28.3708660  10.3885680  43.0172900
  31.6915030   9.8935860  32.9215150  31.4652610   9.1766300  33.5139790
  31.3011230   9.6448300  32.0836900  29.6196930  10.4082140  46.4012070
  29.9553170  10.9948830  47.0789990  28.6997270  10.2774850  46.6309860
  17.4731060  13.9202720  33.6959610  17.8328700  14.5192060  33.0416880
  17.3323400  14.4662610  34.4694640  31.2731280   7.8107800  34.5829310
  30.9852980   8.2720490  35.3707190  32.0683450   7.3505570  34.8513530
  17.4572920  12.1857580  48.1702010  17.5664040  11.2452320  48.0297400
  16.8053480  12.4512330  47.5215740  25.4485510  10.4573470  49.5700130
  25.1282380   9.7382710  50.1145820  24.7743870  11.1328540  49.6436190
  23.4899680  11.3033920  34.5133280  23.4809780  12.0363610  33.8977790
  22.5698040  11.0565500  34.6060240  19.0906320   6.5248810  35.2580040
  18.4834270   7.2647710  35.2675340  19.5655670   6.6148170  34.4318240
  26.4759280  11.3662160  33.1758470  26.5771260  11.1626150  32.2460450
  25.5761020  11.1120440  33.3806250  25.6241100   3.3439220  45.1574900
  26.1226350   3.8185040  45.8226750  25.7664050   2.4202740  45.3644930
  31.1229970   4.8040360  39.4464650  30.1820110   4.8190590  39.6212340
  31.4374040   4.0176320  39.8924950  21.1011610   6.4859960  33.0068610
  21.8674880   6.3741320  33.5694040  21.1786300   5.7897930  32.3545380
  19.7958370   3.9185030  33.6901500  19.8761960   2.9712540  33.8018900
  20.6878120   4.2491910  33.7962160  33.1255550  11.9749210  41.1218910
  33.2502970  12.7980380  41.5942720  33.9921110  11.7639940  40.7743060
  20.5973080  14.0680420  40.7936040  21.3335560  13.5195880  41.0644610
  20.9814000  14.9336430  40.6542030  17.4818560  10.1353990  36.6677550
  16.5558340  10.3775130  36.6582960  17.9474990  10.9628250  36.5462300
  19.6031360  13.2526490  49.9821620  20.4044090  13.5738540  50.3957020
  19.0883180  12.8922070  50.7041530  28.4395990   9.3606360  49.9297030
  27.8334150   9.3837960  49.1892780  28.1350100   8.6289400  50.4664280
  29.8696360  13.0886650  48.5406440  30.8218110  13.0044670  48.4906680
  29.7224580  13.7528360  49.2140230  32.7605560  12.4680860  34.0398350
  32.4747070  12.0546000  33.2252530  32.5625110  13.3968570  33.9198870
  17.3229170   5.7399950  48.9257670  17.8268190   5.1607230  49.4973900
  16.5836590   6.0240180  49.4634040  24.2252790   8.4614140  32.4803960
  24.1203430   7.8466490  33.2065340  24.0577010   7.9380030  31.6966970
  24.3767110   7.1470940  48.4593190  23.6112780   7.7155940  48.3747860
  24.5583070   6.8547150  47.5661420  27.4655520   7.5234170  33.0845950
  26.9165620   7.9703470  33.7288690  28.0874780   7.0183420  33.6083620
  31.5190460   8.8776270  49.0168210  32.2599930   9.2152030  48.5135670
  30.7563140   9.0468330  48.4637980  19.3552250   3.8829540  49.8207740
  19.3957590   3.5843410  50.7292970  20.2097750   4.2837150  49.6615260
  23.1330640   6.4825090  34.9811250  23.5547060   6.3164960  35.8242640
  23.2581480   5.6725320  34.4866390  21.2958060   2.4621640  47.7882230
  20.7654520   1.9712590  47.1605570  21.9646130   2.8905840  47.2540160
  25.6458280   5.5062700  32.2288350  26.1663940   4.7911720  31.8629500
  26.2926680   6.1448570  32.5288860  30.1936120   6.9291100  47.5523420
  30.6077140   7.0836180  48.4013840  29.2587120   7.0546320  47.7149200
  30.6658290   4.2687260  49.5562570  31.2479060   3.5139580  49.4683050
  30.8420060   4.7994700  48.7794050  24.9551350   6.8811580  45.5219350
  25.3739460   7.7244310  45.3495590  24.0359980   7.0183620  45.2926130
  27.2915250   4.6127760  46.9057190  27.4111460   4.0168900  47.6452030
  28.1509250   4.6497450  46.4858490  29.6303150   5.1664950  45.4819700
  29.1038370   5.6907570  44.8784840  29.9734490   5.7992340  46.1129430
  22.0289540   2.5558320  31.9269410  21.8278600   1.6925680  32.2882750
  21.8581590   2.4691680  30.9891010  22.8058770  13.1864590  46.6377080
  22.2679860  13.9110650  46.3185780  23.0592730  12.7094930  45.8474420
  25.6620980  14.4215800  46.8963730  25.5879680  15.3250940  47.2036100
  24.7599820  14.1027700  46.8685800  19.8502470   8.9601360  32.7477090
  20.2877340   9.5031030  33.4034670  20.3350200   8.1348310  32.7573430
  17.0648270  11.7490390  40.1997350  17.3951280  10.8811450  39.9675990
  17.4939270  11.9548910  41.0302310  21.6610190  10.0799400  37.8599320
  21.3605730   9.9564370  38.7603230  21.5547680   9.2207990  37.4515050
  17.5538480  12.6160980  42.9378980  17.1169470  12.7961780  43.7703130
  18.1216160  13.3735600  42.7960700  33.1900660  12.1177980  47.2256290
  32.5902650  12.1770540  46.4820210  33.3194560  11.1782960  47.3553140
  34.4302110   9.8595800  32.5626000  33.5995070   9.9272450  33.0333230
  34.6073940  10.7499920  32.2592860  33.8858570   6.6043280  35.0660200
  34.6477480   7.1739930  35.1719890  33.9012940   6.0370480  35.8368510
  17.3862910   5.1281210  39.2967860  16.7311750   4.8592850  38.6527560
  18.2240860   5.0185690  38.8469840  34.8918540   7.4593380  39.9102130
  35.2627370   6.6760700  39.5038100  35.5320470   8.1482480  39.7319430
  31.8752300   8.8429960  45.3232450  31.0612140   9.2727120  45.5858240
  32.2826500   9.4548370  44.7101500  33.9377740   6.8977650  32.2232720
  34.2126580   7.8056530  32.0951940  33.7488480   6.8340180  33.1594710
  33.8343080   4.8346640  37.2162150  33.4586680   4.0674570  36.7843440
  33.1046200   5.2169340  37.7037080  18.4238840   5.5133780  43.8371200
  18.7911880   5.4261180  44.7167220  17.8549660   4.7500330  43.7378060
  33.2242700   3.9818160  46.8501670  32.9928790   3.7530910  45.9499620
  33.4847250   4.9017710  46.8046560  17.9754840   2.4242870  47.7429620
  17.0810890   2.3909630  48.0823330  18.5152390   2.6229660  48.5080870
  16.6000990   2.3380140  35.2393190  15.6965070   2.6010340  35.0644850
  17.0841610   2.6091310  34.4593150  33.1094040   3.0604130  40.5169390
  33.6331520   2.5666780  39.8859560  33.6953460   3.1954490  41.2616960
  33.2883760   3.1444000  44.0388940  32.3386470   3.1107540  44.1533930
  33.4696770   4.0544110  43.8038710  31.9328350  13.5948560  38.8500720
  32.5287420  13.2733130  38.1735140  32.1906500  13.1220380  39.6413990
  19.8390920  10.0266470  48.9991350  19.7960550   9.6559380  49.8805810
  19.9701930  10.9644040  49.1393170  23.5396950  11.5826060  44.6001070
  23.2988310  11.8500620  43.7131590  24.4799590  11.7531790  44.6551930
  34.8001110  13.6020440  45.4011710  34.3059390  13.9989310  44.6838840
  34.1914400  12.9769650  45.7948990  19.6778950  12.9728720  46.1189130
  19.0839270  12.8413420  46.8579170  19.6702790  12.1366860  45.6531230
  32.4840560  14.2443860  42.6798450  32.0243530  14.9959670  42.3056470
  31.8553020  13.5250330  42.6213250  19.3091180  10.3387100  45.0697170
  18.5825240   9.7192390  45.0023120  19.3700330  10.7327710  44.1995250
  17.5921180  13.6561490  38.2793930  17.4243220  13.0232170  38.9775820
  16.7255690  13.8620890  37.9288120  19.1983880  12.3494720  35.7244070
  18.6731500  12.7302750  35.0206030  19.1228460  12.9745490  36.4453780
  25.7204140  14.3656690  50.0483760  26.6471450  14.1300960  50.0919720
  25.7054570  15.1928690  49.5669790  33.9549200  13.9082260  37.0458010
  34.1301390  13.2220000  36.4018930  33.2570770  14.4329310  36.6534680
  20.9591640  10.4141830  34.6039650  20.3300520  10.8826930  35.1525480
  21.0739470   9.5691050  35.0385840  32.2881700  13.5926550  49.8724800
  33.0807020  13.0975780  49.6650760  32.5814850  14.2716690  50.4800410
  28.4141360   4.4647490  20.7540850  28.3335410   3.5502100  20.4832560
  28.0005780   4.9614560  20.0480560  26.5459400   6.2426510  22.6350120
  25.7701500   5.7626950  22.9248690  27.1972330   5.5632160  22.4606280
  20.5625230   6.5546320  23.5125880  19.7310110   6.2995030  23.9122390
  21.1706210   6.6257090  24.2483800  30.5666830  10.6486700  21.4149250
  30.1048360   9.8773940  21.7436420  31.3792380  10.6752770  21.9201700
  20.5426490  10.5886410  23.7083900  20.8454530   9.6984150  23.5294120
  21.2870080  11.1456630  23.4806150  16.9350190   4.1153860  23.1807970
  17.5066300   3.3476060  23.1811610  16.9351730   4.4142620  22.2714580
  26.7930140  12.9344710  21.0353240  26.1741580  13.3902210  20.4647680
  27.6481920  13.0896170  20.6342940  25.9868390   8.9183700  22.6420280
  25.9176670   7.9773640  22.4809410  26.7488250   9.0085110  23.2142850
  22.9886300   3.0666080  22.6631830  23.4964520   3.5647050  23.3036850
  23.5199540   2.2901280  22.4871190  27.6593490   7.8183950  18.4285150
  27.0410760   8.2833400  17.8647870  28.1716740   8.5111430  18.8454660
  22.5225250   7.3459820  25.1068750  22.1894630   7.9728740  25.7489820
  22.6991930   7.8721700  24.3270420  21.7344350   9.3140620  26.9217930
  22.3518350   9.9891700  26.6402380  20.8737470   9.7228600  26.8305430
  17.0276690   8.5040480  15.8024780  16.6504670   8.9927580  15.0709680
  17.2849760   9.1765760  16.4331310  32.6521940  10.7780030  24.8372570
  31.9685460  11.4479140  24.8289240  33.1916230  10.9760680  24.0717430
  31.4826100   9.3440380  18.6407920  31.3722430   8.4014710  18.7657340
  31.4794350   9.7056020  19.5270680  29.5866120   7.5254000  24.8800360
  30.0034910   7.3114110  24.0453820  30.3105940   7.7826790  25.4508980
  27.0246380   4.9705700  17.9970410  26.0975660   4.9043080  18.2258880
  27.1771200   5.9085830  17.8825650  33.5328220   5.9241220  24.9716600
  32.7046850   5.9934310  24.4966730  34.1278700   6.5095530  24.5032430
  31.0543670   6.5326000  18.5005660  30.4356090   6.1945550  17.8531960
  31.0368120   5.8885760  19.2084850  30.4970230   2.7110540  25.9171470
  30.0841410   3.5364250  26.1711460  29.7646180   2.1255580  25.7247830
  22.6303020   5.4970440  20.7790140  22.2260020   4.7847690  20.2836040
  22.7166140   5.1523680  21.6678180  23.0984720   9.1838000  22.9429350
  22.8013010   8.5783470  22.2637130  24.0484540   9.2215310  22.8318710
  21.3431640   2.2713650  24.5589180  21.8946230   2.3808990  23.7842430
  21.8575150   2.6451250  25.2744410  22.1903150   8.9219690  29.5937150
  21.2931680   9.1459660  29.8410550  22.2156020   9.0454630  28.6448550
  29.2308370   5.7712810  15.5078410  29.6701650   4.9335240  15.3616230
  29.9436790   6.4042210  15.5942550  21.0174370   5.7933010  28.1694520
  20.8782140   6.6655810  28.5381920  20.1355730   5.4505820  28.0242460
  27.3403750  10.7108880  19.4759650  27.7799660  11.4533210  19.0615040
  27.2790640  10.9535450  20.3998610  22.8154720  11.7354710  30.3779670
  22.7870150  12.1397660  29.5108100  22.6519690  10.8065070  30.2151270
  19.3307650   4.3915420  18.2796790  19.2105250   5.1177510  17.6678060
  19.0208540   3.6218330  17.8024700  16.9693020   7.5630560  24.0865430
  17.0473440   7.6979330  23.1421150  17.5834700   6.8546450  24.2793550
  18.2140650   9.2630750  20.4971610  17.8068730   9.4045340  19.6425210
  19.1053660   8.9790910  20.2942820  34.1702790   9.7094660  28.8343850
  34.2965850   9.4706540  27.9161030  34.2124170   8.8779200  29.3065930
  30.0073930  13.6978000  16.8322660  29.8475070  13.4080940  17.7304490
  29.8420640  12.9218130  16.2967890  22.4862310  13.4776530  18.6094280
  22.3104790  12.5612070  18.3962080  21.6318050  13.8363820  18.8492080
  29.7100060  11.2065560  15.3920660  29.0165220  11.2042850  14.7322940
  30.4522920  10.7824880  14.9614830  29.2749990  12.8328270  19.4669150
  29.7306940  12.0517650  19.7807770  29.6142510  13.5435090  20.0110330
  17.0252540   8.6044730  26.6259890  17.1883580   8.1350090  25.8079260
  17.4904990   8.0968290  27.2908730  28.1795340   3.3229710  30.4951230
  28.5048750   2.4893460  30.1553460  28.9675670   3.8458230  30.6429560
  21.5885530   2.8584060  19.3901710  21.3626450   2.6421230  20.2948330
  20.8078060   3.2912520  19.0447680  28.8183290   2.8647430  17.9892360
  28.2192180   3.5883230  17.8055980  29.3662900   2.8024210  17.2068810
  24.0284740   3.7569640  30.0561980  23.9328340   2.8164370  29.9062380
  24.8716720   3.9784710  29.6610050  16.6482560   2.0331890  13.4528560
  16.5657230   2.9762650  13.5943550  16.2965620   1.8906800  12.5740910
  28.0103300   4.0916720  24.1146420  27.2784420   4.6003530  24.4636520
  27.6127640   3.2746700  23.8135200  24.5100840   1.7683000  15.5105670
  24.6313660   1.7269480  16.4591490  24.1249350   2.6307150  15.3552400
  23.5222340   4.0784140  14.9088970  22.9539240   3.6302390  14.2824880
  24.2311340   4.4376920  14.3754120  18.5991520   7.9796160  28.7855700
  18.2146310   7.3389830  29.3838660  18.9103710   8.6832280  29.3550430
  24.7488660   4.8272700  24.2664320  25.1158790   4.3531270  25.0125660
  24.5593720   5.7014270  24.6072660  22.5388030   3.8681340  26.5848530
  22.2345100   4.7473320  26.8098890  23.4934490   3.9281130  26.6205970
  21.0669820   8.0742330  17.1815380  20.2932080   7.5339950  17.0214100
  21.7964450   7.5548940  16.8433140  31.8257800   7.0707690  22.9741770
  32.5456920   7.5662980  22.5837880  31.6239620   6.3925580  22.3295640
  27.2076600   7.1416750  28.8610770  27.1413910   6.2212420  28.6068360
  26.5781740   7.2392190  29.5755410  30.0016130   2.8365300  15.4133320
  30.8895750   3.1482530  15.2384660  29.9721220   1.9637550  15.0213900
  21.1107220   7.7422710  20.8194190  21.6285890   6.9390970  20.7651080
  20.6591240   7.6801850  21.6611020  25.9976720   9.0088990  16.0921490
  26.3392420   9.7531220  15.5964810  25.1689430   9.3220110  16.4546320
  18.5951760   4.7084080  27.7319890  18.2366700   5.3737930  28.3193230
  18.3006320   3.8767630  28.1032510  21.7964880   5.1668320  30.6159440
  21.4965020   5.3125500  29.7187260  22.5676120   4.6073610  30.5232830
  27.1393330   9.9637320  28.6114570  27.1537870   9.0318280  28.3933480
  26.4318430  10.0497080  29.2504340  32.2730400   4.1477140  14.8813180
  32.1894120   4.5791360  14.0309620  32.9924590   4.6075490  15.3140000
  33.3504540   6.6044660  27.9583150  32.6252730   7.1973440  27.7612540
  33.8780000   6.5968200  27.1596520  33.3017650  11.0019400  17.6095310
  32.6593810  10.3475020  17.8839030  32.9148310  11.4074490  16.8335980
  28.8804130   8.3304830  21.4567000  29.2327950   7.7332960  20.7968370
  27.9966460   8.0049060  21.6275250  24.9667410   9.0902520  18.8637410
  25.6538540   9.6371730  19.2445000  24.1799830   9.6343250  18.8987020
  17.1059810   4.7075340  14.3554490  17.9754660   4.9900140  14.6390410
  16.6150130   5.5211210  14.2403300  24.2694620   6.0948550  18.4762770
  24.7257400   6.9053800  18.7022960  23.9182830   5.7771690  19.3081260
  27.8459310   9.6087240  24.4232520  28.4881540   8.9080400  24.5364690
  28.3708660  10.3885680  24.2429410  31.6915030   9.8935860  14.1471660
  31.4652610   9.1766300  14.7396300  31.3011230   9.6448300  13.3093410
  29.6196930  10.4082140  27.6268580  29.9553170  10.9948830  28.3046500
  28.6997270  10.2774850  27.8566370  17.4731060  13.9202720  14.9216120
  17.8328700  14.5192060  14.2673390  17.3323400  14.4662610  15.6951150
  31.2731280   7.8107800  15.8085820  30.9852980   8.2720490  16.5963700
  32.0683450   7.3505570  16.0770040  17.4572920  12.1857580  29.3958520
  17.5664040  11.2452320  29.2553910  16.8053480  12.4512330  28.7472250
  25.4485510  10.4573470  30.7956640  25.1282380   9.7382710  31.3402330
  24.7743870  11.1328540  30.8692700  23.4899680  11.3033920  15.7389790
  23.4809780  12.0363610  15.1234300  22.5698040  11.0565500  15.8316750
  19.0906320   6.5248810  16.4836550  18.4834270   7.2647710  16.4931850
  19.5655670   6.6148170  15.6574750  26.4759280  11.3662160  14.4014980
  26.5771260  11.1626150  13.4716960  25.5761020  11.1120440  14.6062760
  25.6241100   3.3439220  26.3831410  26.1226350   3.8185040  27.0483260
  25.7664050   2.4202740  26.5901440  25.1177390  13.8848480  19.0962650
  25.3718890  13.8469870  18.1742020  24.1689870  13.7581810  19.0890900
  31.1229970   4.8040360  20.6721160  30.1820110   4.8190590  20.8468850
  31.4374040   4.0176320  21.1181460  21.1011610   6.4859960  14.2325120
  21.8674880   6.3741320  14.7950550  21.1786300   5.7897930  13.5801890
  19.7958370   3.9185030  14.9158010  19.8761960   2.9712540  15.0275410
  20.6878120   4.2491910  15.0218670  33.1255550  11.9749210  22.3475420
  33.2502970  12.7980380  22.8199230  33.9921110  11.7639940  21.9999570
  20.5973080  14.0680420  22.0192550  21.3335560  13.5195880  22.2901120
  20.9814000  14.9336430  21.8798540  17.4818560  10.1353990  17.8934060
  16.5558340  10.3775130  17.8839470  17.9474990  10.9628250  17.7718810
  19.6031360  13.2526490  31.2078130  20.4044090  13.5738540  31.6213530
  19.0883180  12.8922070  31.9298040  23.7075390  13.2410730  13.8418120
  24.5004000  13.5299560  13.3899910  23.1879740  12.8102900  13.1630600
  28.4395990   9.3606360  31.1553540  27.8334150   9.3837960  30.4149290
  28.1350100   8.6289400  31.6920790  29.8696360  13.0886650  29.7662950
  30.8218110  13.0044670  29.7163190  29.7224580  13.7528360  30.4396740
  32.7605560  12.4680860  15.2654860  32.4747070  12.0546000  14.4509040
  32.5625110  13.3968570  15.1455380  17.3229170   5.7399950  30.1514180
  17.8268190   5.1607230  30.7230410  16.5836590   6.0240180  30.6890550
  24.2252790   8.4614140  13.7060470  24.1203430   7.8466490  14.4321850
  24.0577010   7.9380030  12.9223480  24.3767110   7.1470940  29.6849700
  23.6112780   7.7155940  29.6004370  24.5583070   6.8547150  28.7917930
  27.4655520   7.5234170  14.3102460  26.9165620   7.9703470  14.9545200
  28.0874780   7.0183420  14.8340130  31.5190460   8.8776270  30.2424720
  32.2599930   9.2152030  29.7392180  30.7563140   9.0468330  29.6894490
  19.3552250   3.8829540  31.0464250  19.3957590   3.5843410  31.9549480
  20.2097750   4.2837150  30.8871770  23.1330640   6.4825090  16.2067760
  23.5547060   6.3164960  17.0499150  23.2581480   5.6725320  15.7122900
  21.2958060   2.4621640  29.0138740  20.7654520   1.9712590  28.3862080
  21.9646130   2.8905840  28.4796670  25.6458280   5.5062700  13.4544860
  26.1663940   4.7911720  13.0886010  26.2926680   6.1448570  13.7545370
  30.1936120   6.9291100  28.7779930  30.6077140   7.0836180  29.6270350
  29.2587120   7.0546320  28.9405710  30.6658290   4.2687260  30.7819080
  31.2479060   3.5139580  30.6939560  30.8420060   4.7994700  30.0050560
  24.9551350   6.8811580  26.7475860  25.3739460   7.7244310  26.5752100
  24.0359980   7.0183620  26.5182640  27.2915250   4.6127760  28.1313700
  27.4111460   4.0168900  28.8708540  28.1509250   4.6497450  27.7115000
  29.6303150   5.1664950  26.7076210  29.1038370   5.6907570  26.1041350
  29.9734490   5.7992340  27.3385940  22.0289540   2.5558320  13.1525920
  21.8278600   1.6925680  13.5139260  21.8581590   2.4691680  12.2147520
  22.8058770  13.1864590  27.8633590  22.2679860  13.9110650  27.5442290
  23.0592730  12.7094930  27.0730930  25.6620980  14.4215800  28.1220240
  25.5879680  15.3250940  28.4292610  24.7599820  14.1027700  28.0942310
  26.2106310  13.5874310  15.7446600  27.1057100  13.9259280  15.7665360
  26.2423940  12.8653720  15.1170880  19.8502470   8.9601360  13.9733600
  20.2877340   9.5031030  14.6291180  20.3350200   8.1348310  13.9829940
  17.0648270  11.7490390  21.4253860  17.3951280  10.8811450  21.1932500
  17.4939270  11.9548910  22.2558820  21.6610190  10.0799400  19.0855830
  21.3605730   9.9564370  19.9859740  21.5547680   9.2207990  18.6771560
  17.5538480  12.6160980  24.1635490  17.1169470  12.7961780  24.9959640
  18.1216160  13.3735600  24.0217210  33.1900660  12.1177980  28.4512800
  32.5902650  12.1770540  27.7076720  33.3194560  11.1782960  28.5809650
  34.4302110   9.8595800  13.7882510  33.5995070   9.9272450  14.2589740
  34.6073940  10.7499920  13.4849370  33.8858570   6.6043280  16.2916710
  34.6477480   7.1739930  16.3976400  33.9012940   6.0370480  17.0625020
  17.3862910   5.1281210  20.5224370  16.7311750   4.8592850  19.8784070
  18.2240860   5.0185690  20.0726350  34.8918540   7.4593380  21.1358640
  35.2627370   6.6760700  20.7294610  35.5320470   8.1482480  20.9575940
  31.8752300   8.8429960  26.5488960  31.0612140   9.2727120  26.8114750
  32.2826500   9.4548370  25.9358010  33.9377740   6.8977650  13.4489230
  34.2126580   7.8056530  13.3208450  33.7488480   6.8340180  14.3851220
  33.8343080   4.8346640  18.4418660  33.4586680   4.0674570  18.0099950
  33.1046200   5.2169340  18.9293590  18.4238840   5.5133780  25.0627710
  18.7911880   5.4261180  25.9423730  17.8549660   4.7500330  24.9634570
  33.2242700   3.9818160  28.0758180  32.9928790   3.7530910  27.1756130
  33.4847250   4.9017710  28.0303070  17.9754840   2.4242870  28.9686130
  17.0810890   2.3909630  29.3079840  18.5152390   2.6229660  29.7337380
  16.6000990   2.3380140  16.4649700  15.6965070   2.6010340  16.2901360
  17.0841610   2.6091310  15.6849660  33.1094040   3.0604130  21.7425900
  33.6331520   2.5666780  21.1116070  33.6953460   3.1954490  22.4873470
  33.2883760   3.1444000  25.2645450  32.3386470   3.1107540  25.3790440
  33.4696770   4.0544110  25.0295220  19.8390920  10.0266470  30.2247860
  19.7960550   9.6559380  31.1062320  19.9701930  10.9644040  30.3649680
  23.5396950  11.5826060  25.8257580  23.2988310  11.8500620  24.9388100
  24.4799590  11.7531790  25.8808440  19.6778950  12.9728720  27.3445640
  19.0839270  12.8413420  28.0835680  19.6702790  12.1366860  26.8787740
  19.3091180  10.3387100  26.2953680  18.5825240   9.7192390  26.2279630
  19.3700330  10.7327710  25.4251760  22.9136280  12.5532100  23.0803090
  23.4301300  11.9419460  22.5551350  23.5633660  13.0560880  23.5714100
  25.6531780  13.4440590  23.9072070  25.9409590  13.1894890  23.0305080
  26.1655000  12.8917950  24.4977640  17.5921180  13.6561490  19.5050440
  17.4243220  13.0232170  20.2032330  16.7255690  13.8620890  19.1544630
  19.1983880  12.3494720  16.9500580  18.6731500  12.7302750  16.2462540
  19.1228460  12.9745490  17.6710290  21.7976850  14.2977100  15.8249830
  22.5295670  14.0136380  15.2773720  22.0570520  14.0590380  16.7149210
  20.9591640  10.4141830  15.8296160  20.3300520  10.8826930  16.3781990
  21.0739470   9.5691050  16.2642350  32.2881700  13.5926550  31.0981310
  33.0807020  13.0975780  30.8907270  32.5814850  14.2716690  31.7056920
  26.5459400   6.2426510   3.8606630  25.7701500   5.7626950   4.1505200
  27.1972330   5.5632160   3.6862790  20.5625230   6.5546320   4.7382390
  19.7310110   6.2995030   5.1378900  21.1706210   6.6257090   5.4740310
  30.5666830  10.6486700   2.6405760  30.1048360   9.8773940   2.9692930
  31.3792380  10.6752770   3.1458210  20.5426490  10.5886410   4.9340410
  20.8454530   9.6984150   4.7550630  21.2870080  11.1456630   4.7062660
  16.9350190   4.1153860   4.4064480  17.5066300   3.3476060   4.4068120
  16.9351730   4.4142620   3.4971090  26.7930140  12.9344710   2.2609750
  26.1741580  13.3902210   1.6904190  27.6481920  13.0896170   1.8599450
  25.9868390   8.9183700   3.8676790  25.9176670   7.9773640   3.7065920
  26.7488250   9.0085110   4.4399360  22.9886300   3.0666080   3.8888340
  23.4964520   3.5647050   4.5293360  23.5199540   2.2901280   3.7127700
  22.5225250   7.3459820   6.3325260  22.1894630   7.9728740   6.9746330
  22.6991930   7.8721700   5.5526930  21.7344350   9.3140620   8.1474440
  22.3518350   9.9891700   7.8658890  20.8737470   9.7228600   8.0561940
  32.6521940  10.7780030   6.0629080  31.9685460  11.4479140   6.0545750
  33.1916230  10.9760680   5.2973940  30.1880680  12.6224160   4.7774260
  30.2007840  12.2186450   3.9096520  29.6355900  13.3971450   4.6735690
  29.5866120   7.5254000   6.1056870  30.0034910   7.3114110   5.2710330
  30.3105940   7.7826790   6.6765490  33.5328220   5.9241220   6.1973110
  32.7046850   5.9934310   5.7223240  34.1278700   6.5095530   5.7288940
  30.4970230   2.7110540   7.1427980  30.0841410   3.5364250   7.3967970
  29.7646180   2.1255580   6.9504340  23.0984720   9.1838000   4.1685860
  22.8013010   8.5783470   3.4893640  24.0484540   9.2215310   4.0575220
  21.3431640   2.2713650   5.7845690  21.8946230   2.3808990   5.0098940
  21.8575150   2.6451250   6.5000920  31.1870330  12.7569870   7.8308960
  30.7100890  13.5642060   7.6381570  30.5032120  12.1048200   7.9835170
  22.1903150   8.9219690  10.8193660  21.2931680   9.1459660  11.0667060
  22.2156020   9.0454630   9.8705060  21.0174370   5.7933010   9.3951030
  20.8782140   6.6655810   9.7638430  20.1355730   5.4505820   9.2498970
  22.8154720  11.7354710  11.6036180  22.7870150  12.1397660  10.7364610
  22.6519690  10.8065070  11.4407780  34.7669540  12.5181810  12.9000350
  35.2429260  12.9964700  13.5789430  35.3876700  12.4499300  12.1745850
  16.9693020   7.5630560   5.3121940  17.0473440   7.6979330   4.3677660
  17.5834700   6.8546450   5.5050060  34.1702790   9.7094660  10.0600360
  34.2965850   9.4706540   9.1417540  34.2124170   8.8779200  10.5322440
  28.0319530  13.4122660   8.6295170  28.5464200  13.3230670   9.4317600
  27.1888610  13.7582360   8.9223080  17.0252540   8.6044730   7.8516400
  17.1883580   8.1350090   7.0335770  17.4904990   8.0968290   8.5165240
  28.1795340   3.3229710  11.7207740  28.5048750   2.4893460  11.3809970
  28.9675670   3.8458230  11.8686070  24.0284740   3.7569640  11.2818490
  23.9328340   2.8164370  11.1318890  24.8716720   3.9784710  10.8866560
  28.0103300   4.0916720   5.3402930  27.2784420   4.6003530   5.6893030
  27.6127640   3.2746700   5.0391710  18.5991520   7.9796160  10.0112210
  18.2146310   7.3389830  10.6095170  18.9103710   8.6832280  10.5806940
  24.7488660   4.8272700   5.4920830  25.1158790   4.3531270   6.2382170
  24.5593720   5.7014270   5.8329170  22.5388030   3.8681340   7.8105040
  22.2345100   4.7473320   8.0355400  23.4934490   3.9281130   7.8462480
  31.8257800   7.0707690   4.1998280  32.5456920   7.5662980   3.8094390
  31.6239620   6.3925580   3.5552150  27.2076600   7.1416750  10.0867280
  27.1413910   6.2212420   9.8324870  26.5781740   7.2392190  10.8011920
  21.1107220   7.7422710   2.0450700  21.6285890   6.9390970   1.9907590
  20.6591240   7.6801850   2.8867530  18.5951760   4.7084080   8.9576400
  18.2366700   5.3737930   9.5449740  18.3006320   3.8767630   9.3289020
  21.7964880   5.1668320  11.8415950  21.4965020   5.3125500  10.9443770
  22.5676120   4.6073610  11.7489340  27.1393330   9.9637320   9.8371080
  27.1537870   9.0318280   9.6189990  26.4318430  10.0497080  10.4760850
  33.3504540   6.6044660   9.1839660  32.6252730   7.1973440   8.9869050
  33.8780000   6.5968200   8.3853030  28.8804130   8.3304830   2.6823510
  29.2327950   7.7332960   2.0224880  27.9966460   8.0049060   2.8531760
  26.5727230  11.6054890   6.9311580  27.2169450  11.8114270   7.6085000
  26.9356670  10.8443290   6.4782430  27.8459310   9.6087240   5.6489030
  28.4881540   8.9080400   5.7621200  28.3708660  10.3885680   5.4685920
  29.6196930  10.4082140   8.8525090  29.9553170  10.9948830   9.5303010
  28.6997270  10.2774850   9.0822880  17.4572920  12.1857580  10.6215030
  17.5664040  11.2452320  10.4810420  16.8053480  12.4512330   9.9728760
  25.4485510  10.4573470  12.0213150  25.1282380   9.7382710  12.5658840
  24.7743870  11.1328540  12.0949210  25.6241100   3.3439220   7.6087920
  26.1226350   3.8185040   8.2739770  25.7664050   2.4202740   7.8157950
  31.1229970   4.8040360   1.8977670  30.1820110   4.8190590   2.0725360
  31.4374040   4.0176320   2.3437970  33.1255550  11.9749210   3.5731930
  33.2502970  12.7980380   4.0455740  33.9921110  11.7639940   3.2256080
  20.5973080  14.0680420   3.2449060  21.3335560  13.5195880   3.5157630
  20.9814000  14.9336430   3.1055050  19.6031360  13.2526490  12.4334640
  20.4044090  13.5738540  12.8470040  19.0883180  12.8922070  13.1554550
  28.4395990   9.3606360  12.3810050  27.8334150   9.3837960  11.6405800
  28.1350100   8.6289400  12.9177300  29.8696360  13.0886650  10.9919460
  30.8218110  13.0044670  10.9419700  29.7224580  13.7528360  11.6653250
  17.3229170   5.7399950  11.3770690  17.8268190   5.1607230  11.9486920
  16.5836590   6.0240180  11.9147060  24.3767110   7.1470940  10.9106210
  23.6112780   7.7155940  10.8260880  24.5583070   6.8547150  10.0174440
  31.5190460   8.8776270  11.4681230  32.2599930   9.2152030  10.9648690
  30.7563140   9.0468330  10.9151000  19.3552250   3.8829540  12.2720760
  19.3957590   3.5843410  13.1805990  20.2097750   4.2837150  12.1128280
  21.2958060   2.4621640  10.2395250  20.7654520   1.9712590   9.6118590
  21.9646130   2.8905840   9.7053180  30.1936120   6.9291100  10.0036440
  30.6077140   7.0836180  10.8526860  29.2587120   7.0546320  10.1662220
  30.6658290   4.2687260  12.0075590  31.2479060   3.5139580  11.9196070
  30.8420060   4.7994700  11.2307070  24.9551350   6.8811580   7.9732370
  25.3739460   7.7244310   7.8008610  24.0359980   7.0183620   7.7439150
  27.2915250   4.6127760   9.3570210  27.4111460   4.0168900  10.0965050
  28.1509250   4.6497450   8.9371510  29.6303150   5.1664950   7.9332720
  29.1038370   5.6907570   7.3297860  29.9734490   5.7992340   8.5642450
  22.8058770  13.1864590   9.0890100  22.2679860  13.9110650   8.7698800
  23.0592730  12.7094930   8.2987440  25.6620980  14.4215800   9.3476750
  25.5879680  15.3250940   9.6549120  24.7599820  14.1027700   9.3198820
  17.0648270  11.7490390   2.6510370  17.3951280  10.8811450   2.4189010
  17.4939270  11.9548910   3.4815330  17.5538480  12.6160980   5.3892000
  17.1169470  12.7961780   6.2216150  18.1216160  13.3735600   5.2473720
  33.1900660  12.1177980   9.6769310  32.5902650  12.1770540   8.9333230
  33.3194560  11.1782960   9.8066160  34.8918540   7.4593380   2.3615150
  35.2627370   6.6760700   1.9551120  35.5320470   8.1482480   2.1832450
  31.8752300   8.8429960   7.7745470  31.0612140   9.2727120   8.0371260
  32.2826500   9.4548370   7.1614520  18.4238840   5.5133780   6.2884220
  18.7911880   5.4261180   7.1680240  17.8549660   4.7500330   6.1891080
  33.2242700   3.9818160   9.3014690  32.9928790   3.7530910   8.4012640
  33.4847250   4.9017710   9.2559580  17.9754840   2.4242870  10.1942640
  17.0810890   2.3909630  10.5336350  18.5152390   2.6229660  10.9593890
  33.1094040   3.0604130   2.9682410  33.6331520   2.5666780   2.3372580
  33.6953460   3.1954490   3.7129980  33.2883760   3.1444000   6.4901960
  32.3386470   3.1107540   6.6046950  33.4696770   4.0544110   6.2551730
  19.8390920  10.0266470  11.4504370  19.7960550   9.6559380  12.3318830
  19.9701930  10.9644040  11.5906190  23.5396950  11.5826060   7.0514090
  23.2988310  11.8500620   6.1644610  24.4799590  11.7531790   7.1064950
  34.8001110  13.6020440   7.8524730  34.3059390  13.9989310   7.1351860
  34.1914400  12.9769650   8.2462010  19.6778950  12.9728720   8.5702150
  19.0839270  12.8413420   9.3092190  19.6702790  12.1366860   8.1044250
  32.4840560  14.2443860   5.1311470  32.0243530  14.9959670   4.7569490
  31.8553020  13.5250330   5.0726270  19.3091180  10.3387100   7.5210190
  18.5825240   9.7192390   7.4536140  19.3700330  10.7327710   6.6508270
  22.9136280  12.5532100   4.3059600  23.4301300  11.9419460   3.7807860
  23.5633660  13.0560880   4.7970610  25.6531780  13.4440590   5.1328580
  25.9409590  13.1894890   4.2561590  26.1655000  12.8917950   5.7234150
  25.7204140  14.3656690  12.4996780  26.6471450  14.1300960  12.5432740
  25.7054570  15.1928690  12.0182810  32.2881700  13.5926550  12.3237820
  33.0807020  13.0975780  12.1163780  32.5814850  14.2716690  12.9313430
   9.6397870  60.7877960  58.3027830   9.5591920  59.8732570  58.0319540
   9.2262290  61.2845030  57.5967540   7.7715910  62.5656980  60.1837100
   6.9958010  62.0857420  60.4735670   8.4228840  61.8862630  60.0093260
   8.2430070  58.0484550  60.4176190   8.6194890  57.1756430  60.3049860
   8.1449580  58.3843250  59.5266630   2.3735080  56.4210180  55.8793630
   2.4801830  57.3213910  56.1862390   1.4627440  56.3728150  55.5888280
  12.0254190  55.5434990  57.3504530  12.8463810  55.0531560  57.3930010
  12.0588270  56.1332650  58.1036370   4.2142810  59.3896550  60.2118810
   4.7221030  59.8877520  60.8523830   4.7456050  58.6131750  60.0358170
   8.8850000  64.1414420  55.9772130   8.2667270  64.6063870  55.4134850
   9.3973250  64.8341900  56.3941640  12.2615670  57.4835370  60.1232070
  11.5571240  57.7720260  60.7035180  12.6227830  58.2935480  59.7631630
  15.3302590  56.9290160  60.5141280  14.3827500  56.9629140  60.6456710
  15.6552580  57.7429110  60.8990640   5.8622130  53.2287340  58.8097270
   6.1697110  52.6734230  58.0932770   4.9322830  53.3631800  58.6270260
   8.2502890  61.2936170  55.5457390   7.3232170  61.2273550  55.7745860
   8.4027710  62.2316300  55.4312630   8.2371970  57.5653170  52.5424550
   7.2975640  57.7267130  52.6277010   8.5555230  58.2838850  51.9960540
  12.2800180  62.8556470  56.0492640  11.6612600  62.5176020  55.4018940
  12.2624630  62.2116230  56.7571830   3.8559530  61.8200910  58.3277120
   3.4516530  61.1078160  57.8323020   3.9422650  61.4754150  59.2165160
  10.4564880  62.0943280  53.0565390  10.8958160  61.2565710  52.9103210
  11.1693300  62.7272680  53.1429530  14.0382020  53.3486090  51.3706430
  13.7254680  53.4412920  52.2705500  14.7994490  53.9267120  51.3203860
   3.0227820  54.0580960  59.2107440   2.5795970  54.8390500  58.8791960
   3.5812810  54.3810850  59.9178380   6.1386640  53.6791660  54.0913270
   5.5140820  53.6751530  54.8166580   6.0516760  52.8122620  53.6949240
   5.0603720  54.6028290  61.0697040   5.3576050  55.5091120  60.9889060
   5.6089280  54.1147070  60.4556610   2.8142040  59.1814530  56.9388690
   2.5882960  58.9651700  57.8435310   2.0334570  59.6142990  56.5934660
  10.0439800  59.1877900  55.5379340   9.4448690  59.9113700  55.3542960
  10.5919410  59.1254680  54.7555790   8.6504670  57.8241440  57.5682620
   9.0434240  58.1413640  56.7551310   9.0121520  56.9453320  57.6827140
   5.6737200  57.0901390  60.0685890   5.6773260  56.6491340  59.2190430
   6.5688320  57.4118720  60.1757710   5.7357350  58.0913470  53.0592650
   5.8570170  58.0499950  54.0078470   5.3505860  58.9537620  52.9039380
   9.6985720  55.8680870  61.0756340   9.7158460  56.3189520  61.9198190
   9.4501300  54.9686510  61.2889780   4.7478850  60.4014610  52.4575950
   4.1795750  59.9532860  51.8311860   5.4567850  60.7607390  51.9241100
   2.2926330  64.3972800  54.7302360   1.5188590  63.8570420  54.5701080
   3.0220960  63.8779410  54.3920120  13.0514310  63.3938160  60.5228750
  13.7713430  63.8893450  60.1324860  12.8496130  62.7156050  59.8782620
   8.5124250  54.7876120  54.6658140   7.6988860  54.2889290  54.5903450
   8.3186200  55.6274370  54.2494490  11.2272640  59.1595770  52.9620300
  12.1152260  59.4713000  52.7871640  11.1977730  58.2868020  52.5700880
   2.3363730  64.0653180  58.3681170   2.8542400  63.2621440  58.3138060
   1.8847750  64.0032320  59.2098000  13.4986910  60.4707610  52.4300160
  13.4150630  60.9021830  51.5796600  14.2181100  60.9305960  52.8626980
  10.1060640  64.6535300  59.0053980  10.4584460  64.0563430  58.3455350
   9.2222970  64.3279530  59.1762230   5.4951130  62.4179020  56.0249750
   5.9513910  63.2284270  56.2509940   5.1439340  62.1002160  56.8568240
  12.4987790  64.1338270  53.3572800  12.2109490  64.5950960  54.1450680
  13.2939960  63.6736040  53.6257020  13.2557650  55.9687040  54.5167980
  12.6270810  56.0732710  53.8026210  12.7609570  56.1883820  55.3061860
   5.2241680  58.2472990  55.9325860   4.5157830  58.7159330  56.3739470
   5.5086160  57.5895000  56.5671050   9.2557110  54.9723650  57.3721650
   9.1324890  54.9909780  56.4231160  10.2041670  55.0202590  57.4920050
   3.4276700  56.5558070  53.3076570   4.2767230  56.9928220  53.2416760
   3.0607970  56.8678330  54.1348630  12.3486480  61.1270830  58.2208140
  11.4076620  61.1421060  58.3955830  12.6630550  60.3406790  58.6668440
   2.3268120  62.8090430  51.7812100   3.0931390  62.6971790  52.3437530
   2.4042810  62.1128400  51.1288870   5.4509300  64.7844610  51.2547450
   5.3459940  64.1696960  51.9808830   5.2833520  64.2610500  50.4710460
   8.6912030  63.8464640  51.8589440   8.1422130  64.2933940  52.5032180
   9.3131290  63.3413890  52.3827110   4.3587150  62.8055560  53.7554740
   4.7803570  62.6395430  54.5986130   4.4837990  61.9955790  53.2609880
   6.8714790  61.8293170  51.0031840   7.3920450  61.1142190  50.6372990
   7.5183190  62.4679040  51.3032350   3.2546050  58.8788790  50.7012900
   3.0535110  58.0156150  51.0626240   3.0838100  58.7922150  49.7634500
  10.7334360  53.6897020  53.2299780  11.0136650  52.8464920  53.5859200
   9.9600090  53.9220130  53.7438530   2.0528850  55.9789410  50.6890780
   2.3554750  55.9856840  49.7809930   2.7923440  55.6287270  51.1858440
   5.2713780  54.9224030  51.6746980   4.9235780  54.2448020  51.0949430
   5.4726550  54.4613540  52.4890370  15.1115080  62.9273750  53.8403690
  15.8733990  63.4970400  53.9463380  15.1269450  62.3600950  54.6112000
  16.1175050  63.7823850  58.6845620  16.4883880  62.9991170  58.2781590
  16.7576980  64.4712950  58.5062920  15.1634250  63.2208120  50.9976210
  15.4383090  64.1287000  50.8695430  14.9744990  63.1570650  51.9338200
  11.5609860  56.2452970  52.2929840  11.9794740  56.0583950  51.4526500
  11.2545920  55.3932020  52.6032770  15.0599590  61.1577110  55.9905640
  14.6843190  60.3905040  55.5586930  14.3302710  61.5399810  56.4780570
  14.3350550  59.3834600  59.2912880  14.8588030  58.8897250  58.6603050
  14.9209970  59.5184960  60.0360450  13.8250520  58.6407950  55.2305290
  14.3209640  58.4078820  56.0154170  13.6266590  57.8019790  54.8142930
  15.2537680  57.2768900  57.7642970  15.1436960  57.1224940  58.7025240
  16.0145270  56.7489840  57.5218380  16.1427950  55.1076820  51.0049110
  17.0677260  54.9758000  50.7967400  16.1203740  55.1869640  51.9585560
  16.2166440  55.8787480  53.6305820  15.4217940  55.8132600  54.1598730
  16.4209720  56.8138120  53.6191170  12.6486370  54.2084360  60.0804650
  13.0894460  54.1529460  59.2326250  12.3793960  55.1242370  60.1514830
  14.5124940  53.8399600  58.0913470  14.4513340  52.8960820  57.9444490
  15.2916970  53.9479690  58.6366930   5.9819520  55.9248010  57.5471590
   5.1694030  55.5504900  57.2067470   6.4861160  55.1693090  57.8492780
  10.4844500  52.5890460  58.7854660  11.0873870  53.1610670  59.2603180
   9.7437490  53.1529900  58.5628560  13.6279100  52.9912020  54.0594940
  13.8229730  53.8895470  54.3262370  12.8408970  52.7599100  54.5527890
   1.8130860  54.3372790  53.0971250   2.3423620  53.5502590  52.9679200
   2.4459180  55.0163980  53.3306780   4.0068700  54.0747930  56.1516640
   3.3771440  53.3735240  56.3186770   3.4673840  54.8352060  55.9349800
   9.6397870  60.7877960  39.5284340   9.5591920  59.8732570  39.2576050
   9.2262290  61.2845030  38.8224050   7.7715910  62.5656980  41.4093610
   6.9958010  62.0857420  41.6992180   8.4228840  61.8862630  41.2349770
   8.2430070  58.0484550  41.6432700   8.6194890  57.1756430  41.5306370
   8.1449580  58.3843250  40.7523140   2.3735080  56.4210180  37.1050140
   2.4801830  57.3213910  37.4118900   1.4627440  56.3728150  36.8144790
  12.0254190  55.5434990  38.5761040  12.8463810  55.0531560  38.6186520
  12.0588270  56.1332650  39.3292880   4.2142810  59.3896550  41.4375320
   4.7221030  59.8877520  42.0780340   4.7456050  58.6131750  41.2614680
  16.3153740  57.5601740  45.1404670  15.6105910  57.9483450  44.6219780
  16.5811660  58.2552030  45.7425600   2.4978910  54.0295110  45.7038740
   2.4997350  54.5467500  44.8984640   1.6683220  53.5525290  45.6808670
   8.8850000  64.1414420  37.2028640   8.2667270  64.6063870  36.6391360
   9.3973250  64.8341900  37.6198150   3.7481760  63.6690290  43.8812240
   3.4151140  64.2959210  44.5233310   3.9248440  64.1952170  43.1013910
  12.2615670  57.4835370  41.3488580  11.5571240  57.7720260  41.9291690
  12.6227830  58.2935480  40.9888140   2.1794240  55.7405070  43.7109190
   2.5211050  56.5847120  43.4163060   1.2410050  55.8888810  43.8274530
  15.3302590  56.9290160  41.7397790  14.3827500  56.9629140  41.8713220
  15.6552580  57.7429110  42.1247150   5.8622130  53.2287340  40.0353780
   6.1697110  52.6734230  39.3189280   4.9322830  53.3631800  39.8526770
  10.8122630  63.8484470  43.6543850  11.2291420  63.6344580  42.8197310
  11.5362450  64.1057260  44.2252470   8.2502890  61.2936170  36.7713900
   7.3232170  61.2273550  37.0002370   8.4027710  62.2316300  36.6569140
   8.2371970  57.5653170  33.7681060   7.2975640  57.7267130  33.8533520
   8.5555230  58.2838850  33.2217050  14.7584730  62.2471690  43.7460090
  13.9303360  62.3164780  43.2710220  15.3535210  62.8326000  43.2775920
  12.2800180  62.8556470  37.2749150  11.6612600  62.5176020  36.6275450
  12.2624630  62.2116230  37.9828340  11.7226740  59.0341010  44.6914960
  11.3097920  59.8594720  44.9454950  10.9902690  58.4486050  44.4991320
   3.8559530  61.8200910  39.5533630   3.4516530  61.1078160  39.0579530
   3.9422650  61.4754150  40.4421670   2.5688150  58.5944120  43.3332670
   3.1202740  58.7039460  42.5585920   3.0831660  58.9681720  44.0487900
  10.4564880  62.0943280  34.2821900  10.8958160  61.2565710  34.1359720
  11.1693300  62.7272680  34.3686040   2.2430880  62.1163480  46.9438010
   2.1038650  62.9886280  47.3125410   1.3612240  61.7736290  46.7985950
  14.0382020  53.3486090  32.5962940  13.7254680  53.4412920  33.4962010
  14.7994490  53.9267120  32.5460370  15.2483310  58.0857590  48.5737080
  14.6327580  58.5937260  48.0452540  14.9279730  57.1855920  48.5163020
   3.0227820  54.0580960  40.4363950   2.5795970  54.8390500  40.1048470
   3.5812810  54.3810850  41.1434890   7.3097630  56.9249480  46.0399270
   6.8477000  57.1332500  46.8519210   6.9075740  56.1108830  45.7369940
  12.3102140  58.1458430  47.1695930  11.4595730  57.8464180  47.4905000
  12.1503930  58.3900440  46.2579750   9.4051850  59.6460180  49.2694720
   9.7305260  58.8123930  48.9296950  10.1932180  60.1688700  49.4173050
   6.1386640  53.6791660  35.3169780   5.5140820  53.6751530  36.0423090
   6.0516760  52.8122620  34.9205750   5.0603720  54.6028290  42.2953550
   5.3576050  55.5091120  42.2145570   5.6089280  54.1147070  41.6813120
   2.8142040  59.1814530  38.1645200   2.5882960  58.9651700  39.0691820
   2.0334570  59.6142990  37.8191170  10.0439800  59.1877900  36.7635850
   9.4448690  59.9113700  36.5799470  10.5919410  59.1254680  35.9812300
   5.2541250  60.0800110  48.8305470   5.1584850  59.1394840  48.6805870
   6.0973230  60.3015180  48.4353540   8.6504670  57.8241440  38.7939130
   9.0434240  58.1413640  37.9807820   9.0121520  56.9453320  38.9083650
   6.9596840  56.5748750  50.0535990   6.2695160  56.3820950  50.6882080
   7.7029140  56.8583390  50.5860290   9.2359810  60.4147190  42.8889910
   8.5040930  60.9234000  43.2380010   8.8384150  59.5977170  42.5878690
   5.6737200  57.0901390  41.2942400   5.6773260  56.6491340  40.4446940
   6.5688320  57.4118720  41.4014220   5.7357350  58.0913470  34.2849160
   5.8570170  58.0499950  35.2334980   5.3505860  58.9537620  34.1295890
   9.6985720  55.8680870  42.3012850   9.7158460  56.3189520  43.1454700
   9.4501300  54.9686510  42.5146290   4.7478850  60.4014610  33.6832460
   4.1795750  59.9532860  33.0568370   5.4567850  60.7607390  33.1497610
  13.1256470  53.2813050  48.1399230  13.4502240  52.5502710  48.6657210
  13.1612980  52.9626690  47.2380220   5.9745170  61.1503170  43.0407810
   6.3415300  60.6761740  43.7869150   5.7850230  62.0244740  43.3816150
   3.7644540  60.1911810  45.3592020   3.4601610  61.0703790  45.5842380
   4.7191000  60.2511600  45.3949460   2.2926330  64.3972800  35.9558870
   1.5188590  63.8570420  35.7957590   3.0220960  63.8779410  35.6176630
  13.0514310  63.3938160  41.7485260  13.7713430  63.8893450  41.3581370
  12.8496130  62.7156050  41.1039130   8.5124250  54.7876120  35.8914650
   7.6988860  54.2889290  35.8159960   8.3186200  55.6274370  35.4751000
   8.4333110  63.4647220  47.6354260   8.3670420  62.5442890  47.3811850
   7.8038250  63.5622660  48.3498900  11.2272640  59.1595770  34.1876810
  12.1152260  59.4713000  34.0128150  11.1977730  58.2868020  33.7957390
   2.3363730  64.0653180  39.5937680   2.8542400  63.2621440  39.5394570
   1.8847750  64.0032320  40.4354510   3.0221390  61.4898790  49.3902930
   2.7221530  61.6355970  48.4930750   3.7932630  60.9304080  49.2976320
  13.4986910  60.4707610  33.6556670  13.4150630  60.9021830  32.8053110
  14.2181100  60.9305960  34.0883490  14.5761050  62.9275130  46.7326640
  13.8509240  63.5203910  46.5356030  15.1036510  62.9198670  45.9340010
  10.1060640  64.6535300  40.2310490  10.4584460  64.0563430  39.5711860
   9.2222970  64.3279530  40.4018740   5.4951130  62.4179020  37.2506260
   5.9513910  63.2284270  37.4766450   5.1439340  62.1002160  38.0824750
  12.4987790  64.1338270  34.5829310  12.2109490  64.5950960  35.3707190
  13.2939960  63.6736040  34.8513530   9.8895620  57.0130100  44.9336930
  10.2576440  56.1925310  45.2616500   9.0293820  57.0731990  45.3492580
  13.2557650  55.9687040  35.7424490  12.6270810  56.0732710  35.0282720
  12.7609570  56.1883820  36.5318370   5.2241680  58.2472990  37.1582370
   4.5157830  58.7159330  37.5995980   5.5086160  57.5895000  37.7927560
   6.8497610  59.6669690  45.1574900   7.3482860  60.1415510  45.8226750
   6.9920560  58.7433210  45.3644930   9.2557110  54.9723650  38.5978160
   9.1324890  54.9909780  37.6487670  10.2041670  55.0202590  38.7176560
   3.4276700  56.5558070  34.5333080   4.2767230  56.9928220  34.4673270
   3.0607970  56.8678330  35.3605140  14.0564470  55.8837650  46.0003290
  13.5538070  56.6243050  46.3397100  14.8721130  56.2721650  45.6840080
  12.3486480  61.1270830  39.4464650  11.4076620  61.1421060  39.6212340
  12.6630550  60.3406790  39.8924950   2.3268120  62.8090430  33.0068610
   3.0931390  62.6971790  33.5694040   2.4042810  62.1128400  32.3545380
   5.4509300  64.7844610  32.4803960   5.3459940  64.1696960  33.2065340
   5.2833520  64.2610500  31.6966970   5.6023620  63.4701410  48.4593190
   4.8369290  64.0386410  48.3747860   5.7839580  63.1777620  47.5661420
   8.6912030  63.8464640  33.0845950   8.1422130  64.2933940  33.7288690
   9.3131290  63.3413890  33.6083620   4.3587150  62.8055560  34.9811250
   4.7803570  62.6395430  35.8242640   4.4837990  61.9955790  34.4866390
   2.5214570  58.7852110  47.7882230   1.9911030  58.2943060  47.1605570
   3.1902640  59.2136310  47.2540160   6.8714790  61.8293170  32.2288350
   7.3920450  61.1142190  31.8629500   7.5183190  62.4679040  32.5288860
  11.4192630  63.2521570  47.5523420  11.8333650  63.4066650  48.4013840
  10.4843630  63.3776790  47.7149200  11.8914800  60.5917730  49.5562570
  12.4735570  59.8370050  49.4683050  12.0676570  61.1225170  48.7794050
   3.0086870  55.7514480  47.8679520   2.9143740  55.1335230  47.1430390
   2.4284260  56.4780770  47.6409430   5.7748310  54.3087720  44.9006910
   5.3265610  54.3311980  44.0552460   5.1413510  53.9106740  45.4977210
   6.1807860  63.2042050  45.5219350   6.5995970  64.0474780  45.3495590
   5.2616490  63.3414090  45.2926130   8.5171760  60.9358230  46.9057190
   8.6367970  60.3399370  47.6452030   9.3765760  60.9727920  46.4858490
  10.8559660  61.4895420  45.4819700  10.3294880  62.0138040  44.8784840
  11.1991000  62.1222810  46.1129430   3.2546050  58.8788790  31.9269410
   3.0535110  58.0156150  32.2882750   3.0838100  58.7922150  30.9891010
   5.2840530  57.4779580  48.1633010   5.8740220  57.1695430  48.8510830
   4.4660770  57.0059330  48.3192910  10.1033960  57.0945390  48.3966030
   9.4149480  56.4326930  48.3316020  10.8239980  56.6483660  48.8414490
  10.7334360  53.6897020  34.4556290  11.0136650  52.8464920  34.8115710
   9.9600090  53.9220130  34.9695040   2.0528850  55.9789410  31.9147290
   2.3554750  55.9856840  31.0066440   2.7923440  55.6287270  32.4114950
   5.2713780  54.9224030  32.9003490   4.9235780  54.2448020  32.3205940
   5.4726550  54.4613540  33.7146880  15.1115080  62.9273750  35.0660200
  15.8733990  63.4970400  35.1719890  15.1269450  62.3600950  35.8368510
  16.1175050  63.7823850  39.9102130  16.4883880  62.9991170  39.5038100
  16.7576980  64.4712950  39.7319430  15.1634250  63.2208120  32.2232720
  15.4383090  64.1287000  32.0951940  14.9744990  63.1570650  33.1594710
  11.5609860  56.2452970  33.5186350  11.9794740  56.0583950  32.6783010
  11.2545920  55.3932020  33.8289280  15.0599590  61.1577110  37.2162150
  14.6843190  60.3905040  36.7843440  14.3302710  61.5399810  37.7037080
  14.4499210  60.3048630  46.8501670  14.2185300  60.0761380  45.9499620
  14.7103760  61.2248180  46.8046560  12.8887280  55.5305060  49.6281370
  13.7657460  55.5388460  50.0115370  12.9008120  54.7935900  49.0173720
  14.3350550  59.3834600  40.5169390  14.8588030  58.8897250  39.8859560
  14.9209970  59.5184960  41.2616960  14.5140270  59.4674470  44.0388940
  13.5642980  59.4338010  44.1533930  14.6953280  60.3774580  43.8038710
  13.8250520  58.6407950  36.4561800  14.3209640  58.4078820  37.2410680
  13.6266590  57.8019790  36.0399440  15.2537680  57.2768900  38.9899480
  15.1436960  57.1224940  39.9281750  16.0145270  56.7489840  38.7474890
  13.6003400  53.2163030  45.4482480  14.2375620  53.8297170  45.8141670
  13.7478290  53.2523690  44.5031710  16.1427950  55.1076820  32.2305620
  17.0677260  54.9758000  32.0223910  16.1203740  55.1869640  33.1842070
  16.2166440  55.8787480  34.8562330  15.4217940  55.8132600  35.3855240
  16.4209720  56.8138120  34.8447680   6.9707880  54.3689220  48.3557580
   6.9096770  54.9611050  49.1052990   7.9108260  54.2615180  48.2107840
   9.6082440  54.0259280  47.9949870  10.2222850  54.3438570  47.3330950
  10.1532000  53.5407870  48.6145730  10.3490480  52.5891420  44.3219160
   9.4750320  52.9226530  44.1192090  10.2401230  52.1164600  45.1471030
  11.2562460  54.7962290  45.7060880  10.9275820  53.9814050  45.3262610
  12.2044760  54.7532100  45.5826570   8.0965300  53.5061260  43.2612070
   7.3137090  53.9806760  43.5408830   7.8028230  52.6016090  43.1525250
  12.6486370  54.2084360  41.3061160  13.0894460  54.1529460  40.4582760
  12.3793960  55.1242370  41.3771340  14.5124940  53.8399600  39.3169980
  14.4513340  52.8960820  39.1701000  15.2916970  53.9479690  39.8623440
   5.9819520  55.9248010  38.7728100   5.1694030  55.5504900  38.4323980
   6.4861160  55.1693090  39.0749290  10.4844500  52.5890460  40.0111170
  11.0873870  53.1610670  40.4859690   9.7437490  53.1529900  39.7885070
  13.6279100  52.9912020  35.2851450  13.8229730  53.8895470  35.5518880
  12.8408970  52.7599100  35.7784400   1.8130860  54.3372790  34.3227760
   2.3423620  53.5502590  34.1935710   2.4459180  55.0163980  34.5563290
   4.0068700  54.0747930  37.3773150   3.3771440  53.3735240  37.5443280
   3.4673840  54.8352060  37.1606310   4.1324260  53.3531910  49.8125640
   3.8508530  53.8565510  49.0486460   4.5143960  52.5553660  49.4467770
  10.7339720  52.7685490  50.3906110  10.6205170  53.0880100  51.2857630
  11.5509460  53.1698000  50.0943390   9.6397870  60.7877960  20.7540850
   9.5591920  59.8732570  20.4832560   9.2262290  61.2845030  20.0480560
   7.7715910  62.5656980  22.6350120   6.9958010  62.0857420  22.9248690
   8.4228840  61.8862630  22.4606280   8.2430070  58.0484550  22.8689210
   8.6194890  57.1756430  22.7562880   8.1449580  58.3843250  21.9779650
   2.3735080  56.4210180  18.3306650   2.4801830  57.3213910  18.6375410
   1.4627440  56.3728150  18.0401300  12.0254190  55.5434990  19.8017550
  12.8463810  55.0531560  19.8443030  12.0588270  56.1332650  20.5549390
   4.2142810  59.3896550  22.6631830   4.7221030  59.8877520  23.3036850
   4.7456050  58.6131750  22.4871190  16.3153740  57.5601740  26.3661180
  15.6105910  57.9483450  25.8476290  16.5811660  58.2552030  26.9682110
   2.4978910  54.0295110  26.9295250   2.4997350  54.5467500  26.1241150
   1.6683220  53.5525290  26.9065180   8.8850000  64.1414420  18.4285150
   8.2667270  64.6063870  17.8647870   9.3973250  64.8341900  18.8454660
   3.7481760  63.6690290  25.1068750   3.4151140  64.2959210  25.7489820
   3.9248440  64.1952170  24.3270420  12.2615670  57.4835370  22.5745090
  11.5571240  57.7720260  23.1548200  12.6227830  58.2935480  22.2144650
   2.1794240  55.7405070  24.9365700   2.5211050  56.5847120  24.6419570
   1.2410050  55.8888810  25.0531040  15.3302590  56.9290160  22.9654300
  14.3827500  56.9629140  23.0969730  15.6552580  57.7429110  23.3503660
   5.8622130  53.2287340  21.2610290   6.1697110  52.6734230  20.5445790
   4.9322830  53.3631800  21.0783280  10.8122630  63.8484470  24.8800360
  11.2291420  63.6344580  24.0453820  11.5362450  64.1057260  25.4508980
   8.2502890  61.2936170  17.9970410   7.3232170  61.2273550  18.2258880
   8.4027710  62.2316300  17.8825650   8.2371970  57.5653170  14.9937570
   7.2975640  57.7267130  15.0790030   8.5555230  58.2838850  14.4473560
  14.7584730  62.2471690  24.9716600  13.9303360  62.3164780  24.4966730
  15.3535210  62.8326000  24.5032430  12.2800180  62.8556470  18.5005660
  11.6612600  62.5176020  17.8531960  12.2624630  62.2116230  19.2084850
  11.7226740  59.0341010  25.9171470  11.3097920  59.8594720  26.1711460
  10.9902690  58.4486050  25.7247830   3.8559530  61.8200910  20.7790140
   3.4516530  61.1078160  20.2836040   3.9422650  61.4754150  21.6678180
   2.5688150  58.5944120  24.5589180   3.1202740  58.7039460  23.7842430
   3.0831660  58.9681720  25.2744410  10.4564880  62.0943280  15.5078410
  10.8958160  61.2565710  15.3616230  11.1693300  62.7272680  15.5942550
   2.2430880  62.1163480  28.1694520   2.1038650  62.9886280  28.5381920
   1.3612240  61.7736290  28.0242460  14.0382020  53.3486090  13.8219450
  13.7254680  53.4412920  14.7218520  14.7994490  53.9267120  13.7716880
  15.2483310  58.0857590  29.7993590  14.6327580  58.5937260  29.2709050
  14.9279730  57.1855920  29.7419530   3.0227820  54.0580960  21.6620460
   2.5795970  54.8390500  21.3304980   3.5812810  54.3810850  22.3691400
   7.3097630  56.9249480  27.2655780   6.8477000  57.1332500  28.0775720
   6.9075740  56.1108830  26.9626450  12.3102140  58.1458430  28.3952440
  11.4595730  57.8464180  28.7161510  12.1503930  58.3900440  27.4836260
   9.4051850  59.6460180  30.4951230   9.7305260  58.8123930  30.1553460
  10.1932180  60.1688700  30.6429560   6.1386640  53.6791660  16.5426290
   5.5140820  53.6751530  17.2679600   6.0516760  52.8122620  16.1462260
   5.0603720  54.6028290  23.5210060   5.3576050  55.5091120  23.4402080
   5.6089280  54.1147070  22.9069630   2.8142040  59.1814530  19.3901710
   2.5882960  58.9651700  20.2948330   2.0334570  59.6142990  19.0447680
  10.0439800  59.1877900  17.9892360   9.4448690  59.9113700  17.8055980
  10.5919410  59.1254680  17.2068810   5.2541250  60.0800110  30.0561980
   5.1584850  59.1394840  29.9062380   6.0973230  60.3015180  29.6610050
   8.6504670  57.8241440  20.0195640   9.0434240  58.1413640  19.2064330
   9.0121520  56.9453320  20.1340160   6.9596840  56.5748750  31.2792500
   6.2695160  56.3820950  31.9138590   7.7029140  56.8583390  31.8116800
   9.2359810  60.4147190  24.1146420   8.5040930  60.9234000  24.4636520
   8.8384150  59.5977170  23.8135200   5.6737200  57.0901390  22.5198910
   5.6773260  56.6491340  21.6703450   6.5688320  57.4118720  22.6270730
   5.7357350  58.0913470  15.5105670   5.8570170  58.0499950  16.4591490
   5.3505860  58.9537620  15.3552400   9.6985720  55.8680870  23.5269360
   9.7158460  56.3189520  24.3711210   9.4501300  54.9686510  23.7402800
   4.7478850  60.4014610  14.9088970   4.1795750  59.9532860  14.2824880
   5.4567850  60.7607390  14.3754120  13.1256470  53.2813050  29.3655740
  13.4502240  52.5502710  29.8913720  13.1612980  52.9626690  28.4636730
   5.9745170  61.1503170  24.2664320   6.3415300  60.6761740  25.0125660
   5.7850230  62.0244740  24.6072660   3.7644540  60.1911810  26.5848530
   3.4601610  61.0703790  26.8098890   4.7191000  60.2511600  26.6205970
   2.2926330  64.3972800  17.1815380   1.5188590  63.8570420  17.0214100
   3.0220960  63.8779410  16.8433140  13.0514310  63.3938160  22.9741770
  13.7713430  63.8893450  22.5837880  12.8496130  62.7156050  22.3295640
   8.5124250  54.7876120  17.1171160   7.6988860  54.2889290  17.0416470
   8.3186200  55.6274370  16.7007510   8.4333110  63.4647220  28.8610770
   8.3670420  62.5442890  28.6068360   7.8038250  63.5622660  29.5755410
  11.2272640  59.1595770  15.4133320  12.1152260  59.4713000  15.2384660
  11.1977730  58.2868020  15.0213900   2.3363730  64.0653180  20.8194190
   2.8542400  63.2621440  20.7651080   1.8847750  64.0032320  21.6611020
   3.0221390  61.4898790  30.6159440   2.7221530  61.6355970  29.7187260
   3.7932630  60.9304080  30.5232830  13.4986910  60.4707610  14.8813180
  13.4150630  60.9021830  14.0309620  14.2181100  60.9305960  15.3140000
  14.5761050  62.9275130  27.9583150  13.8509240  63.5203910  27.7612540
  15.1036510  62.9198670  27.1596520  10.1060640  64.6535300  21.4567000
  10.4584460  64.0563430  20.7968370   9.2222970  64.3279530  21.6275250
   5.4951130  62.4179020  18.4762770   5.9513910  63.2284270  18.7022960
   5.1439340  62.1002160  19.3081260  12.4987790  64.1338270  15.8085820
  12.2109490  64.5950960  16.5963700  13.2939960  63.6736040  16.0770040
   9.8895620  57.0130100  26.1593440  10.2576440  56.1925310  26.4873010
   9.0293820  57.0731990  26.5749090  13.2557650  55.9687040  16.9681000
  12.6270810  56.0732710  16.2539230  12.7609570  56.1883820  17.7574880
   5.2241680  58.2472990  18.3838880   4.5157830  58.7159330  18.8252490
   5.5086160  57.5895000  19.0184070   6.8497610  59.6669690  26.3831410
   7.3482860  60.1415510  27.0483260   6.9920560  58.7433210  26.5901440
   9.2557110  54.9723650  19.8234670   9.1324890  54.9909780  18.8744180
  10.2041670  55.0202590  19.9433070   3.4276700  56.5558070  15.7589590
   4.2767230  56.9928220  15.6929780   3.0607970  56.8678330  16.5861650
  14.0564470  55.8837650  27.2259800  13.5538070  56.6243050  27.5653610
  14.8721130  56.2721650  26.9096590  12.3486480  61.1270830  20.6721160
  11.4076620  61.1421060  20.8468850  12.6630550  60.3406790  21.1181460
   2.3268120  62.8090430  14.2325120   3.0931390  62.6971790  14.7950550
   2.4042810  62.1128400  13.5801890   5.4509300  64.7844610  13.7060470
   5.3459940  64.1696960  14.4321850   5.2833520  64.2610500  12.9223480
   5.6023620  63.4701410  29.6849700   4.8369290  64.0386410  29.6004370
   5.7839580  63.1777620  28.7917930   8.6912030  63.8464640  14.3102460
   8.1422130  64.2933940  14.9545200   9.3131290  63.3413890  14.8340130
   4.3587150  62.8055560  16.2067760   4.7803570  62.6395430  17.0499150
   4.4837990  61.9955790  15.7122900   2.5214570  58.7852110  29.0138740
   1.9911030  58.2943060  28.3862080   3.1902640  59.2136310  28.4796670
   6.8714790  61.8293170  13.4544860   7.3920450  61.1142190  13.0886010
   7.5183190  62.4679040  13.7545370  11.4192630  63.2521570  28.7779930
  11.8333650  63.4066650  29.6270350  10.4843630  63.3776790  28.9405710
  11.8914800  60.5917730  30.7819080  12.4735570  59.8370050  30.6939560
  12.0676570  61.1225170  30.0050560   3.0086870  55.7514480  29.0936030
   2.9143740  55.1335230  28.3686900   2.4284260  56.4780770  28.8665940
   5.7748310  54.3087720  26.1263420   5.3265610  54.3311980  25.2808970
   5.1413510  53.9106740  26.7233720   6.1807860  63.2042050  26.7475860
   6.5995970  64.0474780  26.5752100   5.2616490  63.3414090  26.5182640
   8.5171760  60.9358230  28.1313700   8.6367970  60.3399370  28.8708540
   9.3765760  60.9727920  27.7115000  10.8559660  61.4895420  26.7076210
  10.3294880  62.0138040  26.1041350  11.1991000  62.1222810  27.3385940
   3.2546050  58.8788790  13.1525920   3.0535110  58.0156150  13.5139260
   3.0838100  58.7922150  12.2147520   5.2840530  57.4779580  29.3889520
   5.8740220  57.1695430  30.0767340   4.4660770  57.0059330  29.5449420
  10.1033960  57.0945390  29.6222540   9.4149480  56.4326930  29.5572530
  10.8239980  56.6483660  30.0671000  10.7334360  53.6897020  15.6812800
  11.0136650  52.8464920  16.0372220   9.9600090  53.9220130  16.1951550
   2.0528850  55.9789410  13.1403800   2.3554750  55.9856840  12.2322950
   2.7923440  55.6287270  13.6371460   5.2713780  54.9224030  14.1260000
   4.9235780  54.2448020  13.5462450   5.4726550  54.4613540  14.9403390
  15.1115080  62.9273750  16.2916710  15.8733990  63.4970400  16.3976400
  15.1269450  62.3600950  17.0625020  16.1175050  63.7823850  21.1358640
  16.4883880  62.9991170  20.7294610  16.7576980  64.4712950  20.9575940
  15.1634250  63.2208120  13.4489230  15.4383090  64.1287000  13.3208450
  14.9744990  63.1570650  14.3851220  11.5609860  56.2452970  14.7442860
  11.9794740  56.0583950  13.9039520  11.2545920  55.3932020  15.0545790
  15.0599590  61.1577110  18.4418660  14.6843190  60.3905040  18.0099950
  14.3302710  61.5399810  18.9293590  14.4499210  60.3048630  28.0758180
  14.2185300  60.0761380  27.1756130  14.7103760  61.2248180  28.0303070
  12.8887280  55.5305060  30.8537880  13.7657460  55.5388460  31.2371880
  12.9008120  54.7935900  30.2430230  14.3350550  59.3834600  21.7425900
  14.8588030  58.8897250  21.1116070  14.9209970  59.5184960  22.4873470
  14.5140270  59.4674470  25.2645450  13.5642980  59.4338010  25.3790440
  14.6953280  60.3774580  25.0295220  13.8250520  58.6407950  17.6818310
  14.3209640  58.4078820  18.4667190  13.6266590  57.8019790  17.2655950
  15.2537680  57.2768900  20.2155990  15.1436960  57.1224940  21.1538260
  16.0145270  56.7489840  19.9731400  13.6003400  53.2163030  26.6738990
  14.2375620  53.8297170  27.0398180  13.7478290  53.2523690  25.7288220
  16.1427950  55.1076820  13.4562130  17.0677260  54.9758000  13.2480420
  16.1203740  55.1869640  14.4098580  16.2166440  55.8787480  16.0818840
  15.4217940  55.8132600  16.6111750  16.4209720  56.8138120  16.0704190
   6.9707880  54.3689220  29.5814090   6.9096770  54.9611050  30.3309500
   7.9108260  54.2615180  29.4364350   9.6082440  54.0259280  29.2206380
  10.2222850  54.3438570  28.5587460  10.1532000  53.5407870  29.8402240
  10.3490480  52.5891420  25.5475670   9.4750320  52.9226530  25.3448600
  10.2401230  52.1164600  26.3727540  11.2562460  54.7962290  26.9317390
  10.9275820  53.9814050  26.5519120  12.2044760  54.7532100  26.8083080
   8.0965300  53.5061260  24.4868580   7.3137090  53.9806760  24.7665340
   7.8028230  52.6016090  24.3781760  12.6486370  54.2084360  22.5317670
  13.0894460  54.1529460  21.6839270  12.3793960  55.1242370  22.6027850
  14.5124940  53.8399600  20.5426490  14.4513340  52.8960820  20.3957510
  15.2916970  53.9479690  21.0879950   5.9819520  55.9248010  19.9984610
   5.1694030  55.5504900  19.6580490   6.4861160  55.1693090  20.3005800
  10.4844500  52.5890460  21.2367680  11.0873870  53.1610670  21.7116200
   9.7437490  53.1529900  21.0141580  13.6279100  52.9912020  16.5107960
  13.8229730  53.8895470  16.7775390  12.8408970  52.7599100  17.0040910
   1.8130860  54.3372790  15.5484270   2.3423620  53.5502590  15.4192220
   2.4459180  55.0163980  15.7819800   4.0068700  54.0747930  18.6029660
   3.3771440  53.3735240  18.7699790   3.4673840  54.8352060  18.3862820
   4.1324260  53.3531910  31.0382150   3.8508530  53.8565510  30.2742970
   4.5143960  52.5553660  30.6724280  10.7339720  52.7685490  31.6162620
  10.6205170  53.0880100  32.5114140  11.5509460  53.1698000  31.3199900
   7.7715910  62.5656980   3.8606630   6.9958010  62.0857420   4.1505200
   8.4228840  61.8862630   3.6862790   8.2430070  58.0484550   4.0945720
   8.6194890  57.1756430   3.9819390   8.1449580  58.3843250   3.2036160
   4.2142810  59.3896550   3.8888340   4.7221030  59.8877520   4.5293360
   4.7456050  58.6131750   3.7127700  16.3153740  57.5601740   7.5917690
  15.6105910  57.9483450   7.0732800  16.5811660  58.2552030   8.1938620
   2.4978910  54.0295110   8.1551760   2.4997350  54.5467500   7.3497660
   1.6683220  53.5525290   8.1321690   3.7481760  63.6690290   6.3325260
   3.4151140  64.2959210   6.9746330   3.9248440  64.1952170   5.5526930
  12.2615670  57.4835370   3.8001600  11.5571240  57.7720260   4.3804710
  12.6227830  58.2935480   3.4401160   2.1794240  55.7405070   6.1622210
   2.5211050  56.5847120   5.8676080   1.2410050  55.8888810   6.2787550
  15.3302590  56.9290160   4.1910810  14.3827500  56.9629140   4.3226240
  15.6552580  57.7429110   4.5760170   5.8622130  53.2287340   2.4866800
   6.1697110  52.6734230   1.7702300   4.9322830  53.3631800   2.3039790
  10.8122630  63.8484470   6.1056870  11.2291420  63.6344580   5.2710330
  11.5362450  64.1057260   6.6765490  14.7584730  62.2471690   6.1973110
  13.9303360  62.3164780   5.7223240  15.3535210  62.8326000   5.7288940
  11.7226740  59.0341010   7.1427980  11.3097920  59.8594720   7.3967970
  10.9902690  58.4486050   6.9504340   2.5688150  58.5944120   5.7845690
   3.1202740  58.7039460   5.0098940   3.0831660  58.9681720   6.5000920
   2.2430880  62.1163480   9.3951030   2.1038650  62.9886280   9.7638430
   1.3612240  61.7736290   9.2498970  15.2483310  58.0857590  11.0250100
  14.6327580  58.5937260  10.4965560  14.9279730  57.1855920  10.9676040
   3.0227820  54.0580960   2.8876970   2.5795970  54.8390500   2.5561490
   3.5812810  54.3810850   3.5947910   7.3097630  56.9249480   8.4912290
   6.8477000  57.1332500   9.3032230   6.9075740  56.1108830   8.1882960
  12.3102140  58.1458430   9.6208950  11.4595730  57.8464180   9.9418020
  12.1503930  58.3900440   8.7092770   9.4051850  59.6460180  11.7207740
   9.7305260  58.8123930  11.3809970  10.1932180  60.1688700  11.8686070
   5.0603720  54.6028290   4.7466570   5.3576050  55.5091120   4.6658590
   5.6089280  54.1147070   4.1326140   5.2541250  60.0800110  11.2818490
   5.1584850  59.1394840  11.1318890   6.0973230  60.3015180  10.8866560
   6.9596840  56.5748750  12.5049010   6.2695160  56.3820950  13.1395100
   7.7029140  56.8583390  13.0373310   9.2359810  60.4147190   5.3402930
   8.5040930  60.9234000   5.6893030   8.8384150  59.5977170   5.0391710
   5.6737200  57.0901390   3.7455420   5.6773260  56.6491340   2.8959960
   6.5688320  57.4118720   3.8527240   9.6985720  55.8680870   4.7525870
   9.7158460  56.3189520   5.5967720   9.4501300  54.9686510   4.9659310
  13.1256470  53.2813050  10.5912250  13.4502240  52.5502710  11.1170230
  13.1612980  52.9626690   9.6893240   5.9745170  61.1503170   5.4920830
   6.3415300  60.6761740   6.2382170   5.7850230  62.0244740   5.8329170
   3.7644540  60.1911810   7.8105040   3.4601610  61.0703790   8.0355400
   4.7191000  60.2511600   7.8462480  13.0514310  63.3938160   4.1998280
  13.7713430  63.8893450   3.8094390  12.8496130  62.7156050   3.5552150
   8.4333110  63.4647220  10.0867280   8.3670420  62.5442890   9.8324870
   7.8038250  63.5622660  10.8011920   2.3363730  64.0653180   2.0450700
   2.8542400  63.2621440   1.9907590   1.8847750  64.0032320   2.8867530
   3.0221390  61.4898790  11.8415950   2.7221530  61.6355970  10.9443770
   3.7932630  60.9304080  11.7489340  14.5761050  62.9275130   9.1839660
  13.8509240  63.5203910   8.9869050  15.1036510  62.9198670   8.3853030
  10.1060640  64.6535300   2.6823510  10.4584460  64.0563430   2.0224880
   9.2222970  64.3279530   2.8531760   9.8895620  57.0130100   7.3849950
  10.2576440  56.1925310   7.7129520   9.0293820  57.0731990   7.8005600
   6.8497610  59.6669690   7.6087920   7.3482860  60.1415510   8.2739770
   6.9920560  58.7433210   7.8157950  14.0564470  55.8837650   8.4516310
  13.5538070  56.6243050   8.7910120  14.8721130  56.2721650   8.1353100
  12.3486480  61.1270830   1.8977670  11.4076620  61.1421060   2.0725360
  12.6630550  60.3406790   2.3437970   5.6023620  63.4701410  10.9106210
   4.8369290  64.0386410  10.8260880   5.7839580  63.1777620  10.0174440
   2.5214570  58.7852110  10.2395250   1.9911030  58.2943060   9.6118590
   3.1902640  59.2136310   9.7053180  11.4192630  63.2521570  10.0036440
  11.8333650  63.4066650  10.8526860  10.4843630  63.3776790  10.1662220
  11.8914800  60.5917730  12.0075590  12.4735570  59.8370050  11.9196070
  12.0676570  61.1225170  11.2307070   3.0086870  55.7514480  10.3192540
   2.9143740  55.1335230   9.5943410   2.4284260  56.4780770  10.0922450
   5.7748310  54.3087720   7.3519930   5.3265610  54.3311980   6.5065480
   5.1413510  53.9106740   7.9490230   6.1807860  63.2042050   7.9732370
   6.5995970  64.0474780   7.8008610   5.2616490  63.3414090   7.7439150
   8.5171760  60.9358230   9.3570210   8.6367970  60.3399370  10.0965050
   9.3765760  60.9727920   8.9371510  10.8559660  61.4895420   7.9332720
  10.3294880  62.0138040   7.3297860  11.1991000  62.1222810   8.5642450
   5.2840530  57.4779580  10.6146030   5.8740220  57.1695430  11.3023850
   4.4660770  57.0059330  10.7705930  10.1033960  57.0945390  10.8479050
   9.4149480  56.4326930  10.7829040  10.8239980  56.6483660  11.2927510
  16.1175050  63.7823850   2.3615150  16.4883880  62.9991170   1.9551120
  16.7576980  64.4712950   2.1832450  14.4499210  60.3048630   9.3014690
  14.2185300  60.0761380   8.4012640  14.7103760  61.2248180   9.2559580
  12.8887280  55.5305060  12.0794390  13.7657460  55.5388460  12.4628390
  12.9008120  54.7935900  11.4686740  14.3350550  59.3834600   2.9682410
  14.8588030  58.8897250   2.3372580  14.9209970  59.5184960   3.7129980
  14.5140270  59.4674470   6.4901960  13.5642980  59.4338010   6.6046950
  14.6953280  60.3774580   6.2551730  13.6003400  53.2163030   7.8995500
  14.2375620  53.8297170   8.2654690  13.7478290  53.2523690   6.9544730
   6.9707880  54.3689220  10.8070600   6.9096770  54.9611050  11.5566010
   7.9108260  54.2615180  10.6620860   9.6082440  54.0259280  10.4462890
  10.2222850  54.3438570   9.7843970  10.1532000  53.5407870  11.0658750
  10.3490480  52.5891420   6.7732180   9.4750320  52.9226530   6.5705110
  10.2401230  52.1164600   7.5984050  11.2562460  54.7962290   8.1573900
  10.9275820  53.9814050   7.7775630  12.2044760  54.7532100   8.0339590
   8.0965300  53.5061260   5.7125090   7.3137090  53.9806760   5.9921850
   7.8028230  52.6016090   5.6038270  12.6486370  54.2084360   3.7574180
  13.0894460  54.1529460   2.9095780  12.3793960  55.1242370   3.8284360
  14.5124940  53.8399600   1.7683000  14.4513340  52.8960820   1.6214020
  15.2916970  53.9479690   2.3136460  10.4844500  52.5890460   2.4624190
  11.0873870  53.1610670   2.9372710   9.7437490  53.1529900   2.2398090
   4.1324260  53.3531910  12.2638660   3.8508530  53.8565510  11.4999480
   4.5143960  52.5553660  11.8980790  10.7339720  52.7685490  12.8419130
  10.6205170  53.0880100  13.7370650  11.5509460  53.1698000  12.5456410
   9.6397870  42.0134470  58.3027830   9.5591920  41.0989080  58.0319540
   9.2262290  42.5101540  57.5967540   7.7715910  43.7913490  60.1837100
   6.9958010  43.3113930  60.4735670   8.4228840  43.1119140  60.0093260
  11.7923340  48.1973680  58.9636230  11.3304870  47.4260920  59.2923400
  12.6048890  48.2239750  59.4688680   1.7683000  48.1373390  61.2570880
   2.0711040  47.2471130  61.0781100   2.5126590  48.6943610  61.0293130
   8.0186650  50.4831690  58.5840220   7.3998090  50.9389190  58.0134660
   8.8738430  50.6383150  58.1829920   7.2124900  46.4670680  60.1907260
   7.1433180  45.5260620  60.0296390   7.9744760  46.5572090  60.7629830
   8.2430070  39.2741060  60.4176190   8.6194890  38.4012940  60.3049860
   8.1449580  39.6099760  59.5266630   2.3735080  37.6466690  55.8793630
   2.4801830  38.5470420  56.1862390   1.4627440  37.5984660  55.5888280
  12.0254190  36.7691500  57.3504530  12.8463810  36.2788070  57.3930010
  12.0588270  37.3589160  58.1036370   4.2142810  40.6153060  60.2118810
   4.7221030  41.1134030  60.8523830   4.7456050  39.8388260  60.0358170
   8.8850000  45.3670930  55.9772130   8.2667270  45.8320380  55.4134850
   9.3973250  46.0598410  56.3941640  12.2615670  38.7091880  60.1232070
  11.5571240  38.9976770  60.7035180  12.6227830  39.5191990  59.7631630
  15.3302590  38.1546670  60.5141280  14.3827500  38.1885650  60.6456710
  15.6552580  38.9685620  60.8990640   5.8622130  34.4543850  58.8097270
   6.1697110  33.8990740  58.0932770   4.9322830  34.5888310  58.6270260
  11.4137190  50.1711140  61.1004730  11.4264350  49.7673430  60.2326990
  10.8612410  50.9458430  60.9966160  12.7082610  46.8927360  56.1894900
  12.5978940  45.9501690  56.3144320  12.7050860  47.2543000  57.0757660
   8.2502890  42.5192680  55.5457390   7.3232170  42.4530060  55.7745860
   8.4027710  43.4572810  55.4312630   8.2371970  38.7909680  52.5424550
   7.2975640  38.9523640  52.6277010   8.5555230  39.5095360  51.9960540
  12.2800180  44.0812980  56.0492640  11.6612600  43.7432530  55.4018940
  12.2624630  43.4372740  56.7571830   3.8559530  43.0457420  58.3277120
   3.4516530  42.3334670  57.8323020   3.9422650  42.7010660  59.2165160
   4.3241230  46.7324980  60.4916330   4.0269520  46.1270450  59.8124110
   5.2741050  46.7702290  60.3805690  10.4564880  43.3199790  53.0565390
  10.8958160  42.4822220  52.9103210  11.1693300  43.9529190  53.1429530
   8.5660260  48.2595860  57.0246630   9.0056170  49.0020190  56.6102020
   8.5047150  48.5022430  57.9485590  14.0382020  34.5742600  51.3706430
  13.7254680  34.6669430  52.2705500  14.7994490  35.1523630  51.3203860
  11.2330440  51.2464980  54.3809640  11.0731580  50.9567920  55.2791470
  11.0677150  50.4705110  53.8454870   3.7118820  51.0263510  56.1581260
   3.5361300  50.1099050  55.9449060   2.8574560  51.3850800  56.3979060
  10.9356570  48.7552540  52.9407640  10.2421730  48.7529830  52.2809920
  11.6779430  48.3311860  52.5101810  10.5006500  50.3815250  57.0156130
  10.9563450  49.6004630  57.3294750  10.8399020  51.0922070  57.5597310
   3.0227820  35.2837470  59.2107440   2.5795970  36.0647010  58.8791960
   3.5812810  35.6067360  59.9178380   6.1386640  34.9048170  54.0913270
   5.5140820  34.9008040  54.8166580   6.0516760  34.0379130  53.6949240
   5.0603720  35.8284800  61.0697040   5.3576050  36.7347630  60.9889060
   5.6089280  35.3403580  60.4556610   2.8142040  40.4071040  56.9388690
   2.5882960  40.1908210  57.8435310   2.0334570  40.8399500  56.5934660
  10.0439800  40.4134410  55.5379340   9.4448690  41.1370210  55.3542960
  10.5919410  40.3511190  54.7555790   8.6504670  39.0497950  57.5682620
   9.0434240  39.3670150  56.7551310   9.0121520  38.1709830  57.6827140
   5.6737200  38.3157900  60.0685890   5.6773260  37.8747850  59.2190430
   6.5688320  38.6375230  60.1757710   5.7357350  39.3169980  53.0592650
   5.8570170  39.2756460  54.0078470   5.3505860  40.1794130  52.9039380
   9.6985720  37.0937380  61.0756340   9.7158460  37.5446030  61.9198190
   9.4501300  36.1943020  61.2889780   4.7478850  41.6271120  52.4575950
   4.1795750  41.1789370  51.8311860   5.4567850  41.9863900  51.9241100
   2.2926330  45.6229310  54.7302360   1.5188590  45.0826930  54.5701080
   3.0220960  45.1035920  54.3920120  13.0514310  44.6194670  60.5228750
  13.7713430  45.1149960  60.1324860  12.8496130  43.9412560  59.8782620
   8.5124250  36.0132630  54.6658140   7.6988860  35.5145800  54.5903450
   8.3186200  36.8530880  54.2494490  11.2272640  40.3852280  52.9620300
  12.1152260  40.6969510  52.7871640  11.1977730  39.5124530  52.5700880
   2.3363730  45.2909690  58.3681170   2.8542400  44.4877950  58.3138060
   1.8847750  45.2288830  59.2098000   7.2233230  46.5575970  53.6408470
   7.5648930  47.3018200  53.1451790   6.3945940  46.8707090  54.0033300
  13.4986910  41.6964120  52.4300160  13.4150630  42.1278340  51.5796600
  14.2181100  42.1562470  52.8626980  14.5274160  48.5506380  55.1582290
  13.8850320  47.8962000  55.4326010  14.1404820  48.9561470  54.3822960
  10.1060640  45.8791810  59.0053980  10.4584460  45.2819940  58.3455350
   9.2222970  45.5536040  59.1762230   6.1923920  46.6389500  56.4124390
   6.8795050  47.1858710  56.7931980   5.4056340  47.1830230  56.4474000
   5.4951130  43.6435530  56.0249750   5.9513910  44.4540780  56.2509940
   5.1439340  43.3258670  56.8568240  12.9171540  47.4422840  51.6958640
  12.6909120  46.7253280  52.2883280  12.5267740  47.1935280  50.8580390
  12.4987790  45.3594780  53.3572800  12.2109490  45.8207470  54.1450680
  13.2939960  44.8992550  53.6257020   4.7156190  48.8520900  53.2876770
   4.7066290  49.5850590  52.6721280   3.7954550  48.6052480  53.3803730
  13.2557650  37.1943550  54.5167980  12.6270810  37.2989220  53.8026210
  12.7609570  37.4140330  55.3061860   7.7015790  48.9149140  51.9501960
   7.8027770  48.7113130  51.0203940   6.8017530  48.6607420  52.1549740
   5.2241680  39.4729500  55.9325860   4.5157830  39.9415840  56.3739470
   5.5086160  38.8151510  56.5671050   9.2557110  36.1980160  57.3721650
   9.1324890  36.2166290  56.4231160  10.2041670  36.2459100  57.4920050
   6.3433900  51.4335460  56.6449630   6.5975400  51.3956850  55.7229000
   5.3946380  51.3068790  56.6377880   3.4276700  37.7814580  53.3076570
   4.2767230  38.2184730  53.2416760   3.0607970  38.0934840  54.1348630
  12.3486480  42.3527340  58.2208140  11.4076620  42.3677570  58.3955830
  12.6630550  41.5663300  58.6668440   2.3268120  44.0346940  51.7812100
   3.0931390  43.9228300  52.3437530   2.4042810  43.3384910  51.1288870
  14.3512060  49.5236190  59.8962400  14.4759480  50.3467360  60.3686210
  15.2177620  49.3126920  59.5486550   1.8229590  51.6167400  59.5679530
   2.5592070  51.0682860  59.8388100   2.2070510  52.4823410  59.4285520
   4.9331900  50.7897710  51.3905100   5.7260510  51.0786540  50.9386890
   4.4136250  50.3589880  50.7117580  13.9862070  50.0167840  52.8141840
  13.7003580  49.6032980  51.9996020  13.7881620  50.9455550  52.6942360
   5.4509300  46.0101120  51.2547450   5.3459940  45.3953470  51.9808830
   5.2833520  45.4867010  50.4710460   8.6912030  45.0721150  51.8589440
   8.1422130  45.5190450  52.5032180   9.3131290  44.5670400  52.3827110
   4.3587150  44.0312070  53.7554740   4.7803570  43.8651940  54.5986130
   4.4837990  43.2212300  53.2609880   6.8714790  43.0549680  51.0031840
   7.3920450  42.3398700  50.6372990   7.5183190  43.6935550  51.3032350
   3.2546050  40.1045300  50.7012900   3.0535110  39.2412660  51.0626240
   3.0838100  40.0178660  49.7634500  10.7334360  34.9153530  53.2299780
  11.0136650  34.0721430  53.5859200   9.9600090  35.1476640  53.7438530
   2.0528850  37.2045920  50.6890780   2.3554750  37.2113350  49.7809930
   2.7923440  36.8543780  51.1858440   5.2713780  36.1480540  51.6746980
   4.9235780  35.4704530  51.0949430   5.4726550  35.6870050  52.4890370
   7.4362820  51.1361290  53.2933580   8.3313610  51.4746260  53.3152340
   7.4680450  50.4140700  52.6657860   2.8866700  47.6286380  56.6342810
   2.5862240  47.5051350  57.5346720   2.7804190  46.7694970  56.2258540
  15.6558620  47.4082780  51.3369490  14.8251580  47.4759430  51.8076720
  15.8330450  48.2986900  51.0336350  15.1115080  44.1530260  53.8403690
  15.8733990  44.7226910  53.9463380  15.1269450  43.5857460  54.6112000
  16.1175050  45.0080360  58.6845620  16.4883880  44.2247680  58.2781590
  16.7576980  45.6969460  58.5062920  15.1634250  44.4464630  50.9976210
  15.4383090  45.3543510  50.8695430  14.9744990  44.3827160  51.9338200
  11.5609860  37.4709480  52.2929840  11.9794740  37.2840460  51.4526500
  11.2545920  36.6188530  52.6032770  15.0599590  42.3833620  55.9905640
  14.6843190  41.6161550  55.5586930  14.3302710  42.7656320  56.4780570
  14.3350550  40.6091110  59.2912880  14.8588030  40.1153760  58.6603050
  14.9209970  40.7441470  60.0360450  13.8250520  39.8664460  55.2305290
  14.3209640  39.6335330  56.0154170  13.6266590  39.0276300  54.8142930
  15.2537680  38.5025410  57.7642970  15.1436960  38.3481450  58.7025240
  16.0145270  37.9746350  57.5218380  16.2166440  37.1043990  53.6305820
  15.4217940  37.0389110  54.1598730  16.4209720  38.0394630  53.6191170
  13.1584860  51.1435540  57.6244210  13.7543930  50.8220110  56.9478630
  13.4163010  50.6707360  58.4157480  13.7097070  51.7930840  61.4541940
  13.2500040  52.5446650  61.0799960  13.0809530  51.0737310  61.3956740
   4.1392790  50.1019080  60.6290070   4.6557810  49.4906440  60.1038330
   4.7890170  50.6047860  61.1201080  12.6486370  35.4340870  60.0804650
  13.0894460  35.3785970  59.2326250  12.3793960  36.3498880  60.1514830
  14.5124940  35.0656110  58.0913470  14.4513340  34.1217330  57.9444490
  15.2916970  35.1736200  58.6366930   5.9819520  37.1504520  57.5471590
   5.1694030  36.7761410  57.2067470   6.4861160  36.3949600  57.8492780
  10.4844500  33.8146970  58.7854660  11.0873870  34.3867180  59.2603180
   9.7437490  34.3786410  58.5628560  13.6279100  34.2168530  54.0594940
  13.8229730  35.1151980  54.3262370  12.8408970  33.9855610  54.5527890
   1.8130860  35.5629300  53.0971250   2.3423620  34.7759100  52.9679200
   2.4459180  36.2420490  53.3306780   4.0068700  35.3004440  56.1516640
   3.3771440  34.5991750  56.3186770   3.4673840  36.0608570  55.9349800
  15.1805710  51.4569240  55.8201500  15.3557900  50.7706980  55.1762420
  14.4827280  51.9816290  55.4278170   3.0233360  51.8464080  53.3736810
   3.7552180  51.5623360  52.8260700   3.2827030  51.6077360  54.2636190
   2.1848150  47.9628810  53.3783140   1.5557030  48.4313910  53.9268970
   2.2995980  47.1178030  53.8129330   9.6397870  42.0134470  39.5284340
   9.5591920  41.0989080  39.2576050   9.2262290  42.5101540  38.8224050
   7.7715910  43.7913490  41.4093610   6.9958010  43.3113930  41.6992180
   8.4228840  43.1119140  41.2349770  11.7923340  48.1973680  40.1892740
  11.3304870  47.4260920  40.5179910  12.6048890  48.2239750  40.6945190
   1.7683000  48.1373390  42.4827390   2.0711040  47.2471130  42.3037610
   2.5126590  48.6943610  42.2549640   8.0186650  50.4831690  39.8096730
   7.3998090  50.9389190  39.2391170   8.8738430  50.6383150  39.4086430
   7.2124900  46.4670680  41.4163770   7.1433180  45.5260620  41.2552900
   7.9744760  46.5572090  41.9886340   8.2430070  39.2741060  41.6432700
   8.6194890  38.4012940  41.5306370   8.1449580  39.6099760  40.7523140
   2.3735080  37.6466690  37.1050140   2.4801830  38.5470420  37.4118900
   1.4627440  37.5984660  36.8144790   4.2142810  40.6153060  41.4375320
   4.7221030  41.1134030  42.0780340   4.7456050  39.8388260  41.2614680
   2.4978910  35.2551620  45.7038740   2.4997350  35.7724010  44.8984640
   1.6683220  34.7781800  45.6808670   8.8850000  45.3670930  37.2028640
   8.2667270  45.8320380  36.6391360   9.3973250  46.0598410  37.6198150
   3.7481760  44.8946800  43.8812240   3.4151140  45.5215720  44.5233310
   3.9248440  45.4208680  43.1013910   2.1794240  36.9661580  43.7109190
   2.5211050  37.8103630  43.4163060   1.2410050  37.1145320  43.8274530
   2.9600860  46.8627600  45.6961420   3.5774860  47.5378680  45.4145870
   2.0993980  47.2715580  45.6048920  13.8778450  48.3267010  43.6116060
  13.1941970  48.9966120  43.6032730  14.4172740  48.5247660  42.8460920
   5.8622130  34.4543850  40.0353780   6.1697110  33.8990740  39.3189280
   4.9322830  34.5888310  39.8526770  11.4137190  50.1711140  42.3261240
  11.4264350  49.7673430  41.4583500  10.8612410  50.9458430  42.2222670
  12.7082610  46.8927360  37.4151410  12.5978940  45.9501690  37.5400830
  12.7050860  47.2543000  38.3014170  10.8122630  45.0740980  43.6543850
  11.2291420  44.8601090  42.8197310  11.5362450  45.3313770  44.2252470
   8.2502890  42.5192680  36.7713900   7.3232170  42.4530060  37.0002370
   8.4027710  43.4572810  36.6569140   8.2371970  38.7909680  33.7681060
   7.2975640  38.9523640  33.8533520   8.5555230  39.5095360  33.2217050
  14.7584730  43.4728200  43.7460090  13.9303360  43.5421290  43.2710220
  15.3535210  44.0582510  43.2775920  12.2800180  44.0812980  37.2749150
  11.6612600  43.7432530  36.6275450  12.2624630  43.4372740  37.9828340
   3.8559530  43.0457420  39.5533630   3.4516530  42.3334670  39.0579530
   3.9422650  42.7010660  40.4421670   4.3241230  46.7324980  41.7172840
   4.0269520  46.1270450  41.0380620   5.2741050  46.7702290  41.6062200
   2.5688150  39.8200630  43.3332670   3.1202740  39.9295970  42.5585920
   3.0831660  40.1938230  44.0487900  12.4126840  50.3056850  45.3795940
  11.9357400  51.1129040  45.1868550  11.7288630  49.6535180  45.5322150
   3.4159660  46.4706670  48.3680640   2.5188190  46.6946640  48.6154040
   3.4412530  46.5941610  47.4192040  10.4564880  43.3199790  34.2821900
  10.8958160  42.4822220  34.1359720  11.1693300  43.9529190  34.3686040
   2.2430880  43.3419990  46.9438010   2.1038650  44.2142790  47.3125410
   1.3612240  42.9992800  46.7985950   8.5660260  48.2595860  38.2503140
   9.0056170  49.0020190  37.8358530   8.5047150  48.5022430  39.1742100
   4.0411230  49.2841690  49.1523160   4.0126660  49.6884640  48.2851590
   3.8776200  48.3552050  48.9894760  15.9926050  50.0668790  50.4487330
  16.4685770  50.5451680  51.1276410  16.6133210  49.9986280  49.7232830
  15.3959300  47.2581640  47.6087340  15.5222360  47.0193520  46.6904520
  15.4380680  46.4266180  48.0809420   9.2576040  50.9609640  46.1782150
   9.7720710  50.8717650  46.9804580   8.4145120  51.3069340  46.4710060
  11.2330440  51.2464980  35.6066150  11.0731580  50.9567920  36.5047980
  11.0677150  50.4705110  35.0711380   3.7118820  51.0263510  37.3837770
   3.5361300  50.1099050  37.1705570   2.8574560  51.3850800  37.6235570
  10.9356570  48.7552540  34.1664150  10.2421730  48.7529830  33.5066430
  11.6779430  48.3311860  33.7358320  10.5006500  50.3815250  38.2412640
  10.9563450  49.6004630  38.5551260  10.8399020  51.0922070  38.7853820
   3.0227820  35.2837470  40.4363950   2.5795970  36.0647010  40.1048470
   3.5812810  35.6067360  41.1434890   7.3097630  38.1505990  46.0399270
   6.8477000  38.3589010  46.8519210   6.9075740  37.3365340  45.7369940
   9.4051850  40.8716690  49.2694720   9.7305260  40.0380440  48.9296950
  10.1932180  41.3945210  49.4173050   6.1386640  34.9048170  35.3169780
   5.5140820  34.9008040  36.0423090   6.0516760  34.0379130  34.9205750
   5.0603720  35.8284800  42.2953550   5.3576050  36.7347630  42.2145570
   5.6089280  35.3403580  41.6813120   2.8142040  40.4071040  38.1645200
   2.5882960  40.1908210  39.0691820   2.0334570  40.8399500  37.8191170
  10.0439800  40.4134410  36.7635850   9.4448690  41.1370210  36.5799470
  10.5919410  40.3511190  35.9812300   5.2541250  41.3056620  48.8305470
   5.1584850  40.3651350  48.6805870   6.0973230  41.5271690  48.4353540
   8.6504670  39.0497950  38.7939130   9.0434240  39.3670150  37.9807820
   9.0121520  38.1709830  38.9083650   6.9596840  37.8005260  50.0535990
   6.2695160  37.6077460  50.6882080   7.7029140  38.0839900  50.5860290
   9.2359810  41.6403700  42.8889910   8.5040930  42.1490510  43.2380010
   8.8384150  40.8233680  42.5878690   5.6737200  38.3157900  41.2942400
   5.6773260  37.8747850  40.4446940   6.5688320  38.6375230  41.4014220
   5.7357350  39.3169980  34.2849160   5.8570170  39.2756460  35.2334980
   5.3505860  40.1794130  34.1295890   9.6985720  37.0937380  42.3012850
   9.7158460  37.5446030  43.1454700   9.4501300  36.1943020  42.5146290
   4.7478850  41.6271120  33.6832460   4.1795750  41.1789370  33.0568370
   5.4567850  41.9863900  33.1497610  13.1256470  34.5069560  48.1399230
  13.4502240  33.7759220  48.6657210  13.1612980  34.1883200  47.2380220
   5.9745170  42.3759680  43.0407810   6.3415300  41.9018250  43.7869150
   5.7850230  43.2501250  43.3816150   3.7644540  41.4168320  45.3592020
   3.4601610  42.2960300  45.5842380   4.7191000  41.4768110  45.3949460
   2.2926330  45.6229310  35.9558870   1.5188590  45.0826930  35.7957590
   3.0220960  45.1035920  35.6176630  13.0514310  44.6194670  41.7485260
  13.7713430  45.1149960  41.3581370  12.8496130  43.9412560  41.1039130
   8.5124250  36.0132630  35.8914650   7.6988860  35.5145800  35.8159960
   8.3186200  36.8530880  35.4751000   8.4333110  44.6903730  47.6354260
   8.3670420  43.7699400  47.3811850   7.8038250  44.7879170  48.3498900
  11.2272640  40.3852280  34.1876810  12.1152260  40.6969510  34.0128150
  11.1977730  39.5124530  33.7957390   2.3363730  45.2909690  39.5937680
   2.8542400  44.4877950  39.5394570   1.8847750  45.2288830  40.4354510
   7.2233230  46.5575970  34.8664980   7.5648930  47.3018200  34.3708300
   6.3945940  46.8707090  35.2289810   3.0221390  42.7155300  49.3902930
   2.7221530  42.8612480  48.4930750   3.7932630  42.1560590  49.2976320
   8.3649840  47.5124300  47.3858060   8.3794380  46.5805260  47.1676970
   7.6574940  47.5984060  48.0247830  13.4986910  41.6964120  33.6556670
  13.4150630  42.1278340  32.8053110  14.2181100  42.1562470  34.0883490
  14.5761050  44.1531640  46.7326640  13.8509240  44.7460420  46.5356030
  15.1036510  44.1455180  45.9340010  14.5274160  48.5506380  36.3838800
  13.8850320  47.8962000  36.6582520  14.1404820  48.9561470  35.6079470
  10.1060640  45.8791810  40.2310490  10.4584460  45.2819940  39.5711860
   9.2222970  45.5536040  40.4018740   6.1923920  46.6389500  37.6380900
   6.8795050  47.1858710  38.0188490   5.4056340  47.1830230  37.6730510
   5.4951130  43.6435530  37.2506260   5.9513910  44.4540780  37.4766450
   5.1439340  43.3258670  38.0824750   7.7983740  49.1541870  44.4798560
   8.4425960  49.3601250  45.1571980   8.1613180  48.3930270  44.0269410
   9.0715820  47.1574220  43.1976010   9.7138050  46.4567380  43.3108180
   9.5965170  47.9372660  43.0172900  12.9171540  47.4422840  32.9215150
  12.6909120  46.7253280  33.5139790  12.5267740  47.1935280  32.0836900
  10.8453440  47.9569120  46.4012070  11.1809680  48.5435810  47.0789990
   9.9253780  47.8261830  46.6309860  12.4987790  45.3594780  34.5829310
  12.2109490  45.8207470  35.3707190  13.2939960  44.8992550  34.8513530
   6.6742020  48.0060450  49.5700130   6.3538890  47.2869690  50.1145820
   6.0000380  48.6815520  49.6436190   4.7156190  48.8520900  34.5133280
   4.7066290  49.5850590  33.8977790   3.7954550  48.6052480  34.6060240
   9.8895620  38.2386610  44.9336930  10.2576440  37.4181820  45.2616500
   9.0293820  38.2988500  45.3492580  13.2557650  37.1943550  35.7424490
  12.6270810  37.2989220  35.0282720  12.7609570  37.4140330  36.5318370
   7.7015790  48.9149140  33.1758470   7.8027770  48.7113130  32.2460450
   6.8017530  48.6607420  33.3806250   5.2241680  39.4729500  37.1582370
   4.5157830  39.9415840  37.5995980   5.5086160  38.8151510  37.7927560
   6.8497610  40.8926200  45.1574900   7.3482860  41.3672020  45.8226750
   6.9920560  39.9689720  45.3644930   9.2557110  36.1980160  38.5978160
   9.1324890  36.2166290  37.6487670  10.2041670  36.2459100  38.7176560
   6.3433900  51.4335460  37.8706140   6.5975400  51.3956850  36.9485510
   5.3946380  51.3068790  37.8634390   3.4276700  37.7814580  34.5333080
   4.2767230  38.2184730  34.4673270   3.0607970  38.0934840  35.3605140
  12.3486480  42.3527340  39.4464650  11.4076620  42.3677570  39.6212340
  12.6630550  41.5663300  39.8924950   2.3268120  44.0346940  33.0068610
   3.0931390  43.9228300  33.5694040   2.4042810  43.3384910  32.3545380
  14.3512060  49.5236190  41.1218910  14.4759480  50.3467360  41.5942720
  15.2177620  49.3126920  40.7743060   1.8229590  51.6167400  40.7936040
   2.5592070  51.0682860  41.0644610   2.2070510  52.4823410  40.6542030
   4.9331900  50.7897710  32.6161610   5.7260510  51.0786540  32.1643400
   4.4136250  50.3589880  31.9374090   9.6652500  46.9093340  49.9297030
   9.0590660  46.9324940  49.1892780   9.3606610  46.1776380  50.4664280
  11.0952870  50.6373630  48.5406440  12.0474620  50.5531650  48.4906680
  10.9481090  51.3015340  49.2140230  13.9862070  50.0167840  34.0398350
  13.7003580  49.6032980  33.2252530  13.7881620  50.9455550  33.9198870
   5.4509300  46.0101120  32.4803960   5.3459940  45.3953470  33.2065340
   5.2833520  45.4867010  31.6966970   5.6023620  44.6957920  48.4593190
   4.8369290  45.2642920  48.3747860   5.7839580  44.4034130  47.5661420
   8.6912030  45.0721150  33.0845950   8.1422130  45.5190450  33.7288690
   9.3131290  44.5670400  33.6083620  12.7446970  46.4263250  49.0168210
  13.4856440  46.7639010  48.5135670  11.9819650  46.5955310  48.4637980
   4.3587150  44.0312070  34.9811250   4.7803570  43.8651940  35.8242640
   4.4837990  43.2212300  34.4866390   2.5214570  40.0108620  47.7882230
   1.9911030  39.5199570  47.1605570   3.1902640  40.4392820  47.2540160
   6.8714790  43.0549680  32.2288350   7.3920450  42.3398700  31.8629500
   7.5183190  43.6935550  32.5288860  11.4192630  44.4778080  47.5523420
  11.8333650  44.6323160  48.4013840  10.4843630  44.6033300  47.7149200
  11.8914800  41.8174240  49.5562570  12.4735570  41.0626560  49.4683050
  12.0676570  42.3481680  48.7794050   3.0086870  36.9770990  47.8679520
   2.9143740  36.3591740  47.1430390   2.4284260  37.7037280  47.6409430
   5.7748310  35.5344230  44.9006910   5.3265610  35.5568490  44.0552460
   5.1413510  35.1363250  45.4977210   6.1807860  44.4298560  45.5219350
   6.5995970  45.2731290  45.3495590   5.2616490  44.5670600  45.2926130
   8.5171760  42.1614740  46.9057190   8.6367970  41.5655880  47.6452030
   9.3765760  42.1984430  46.4858490  10.8559660  42.7151930  45.4819700
  10.3294880  43.2394550  44.8784840  11.1991000  43.3479320  46.1129430
   3.2546050  40.1045300  31.9269410   3.0535110  39.2412660  32.2882750
   3.0838100  40.0178660  30.9891010   4.0315280  50.7351570  46.6377080
   3.4936370  51.4597630  46.3185780   4.2849240  50.2581910  45.8474420
   5.2840530  38.7036090  48.1633010   5.8740220  38.3951940  48.8510830
   4.4660770  38.2315840  48.3192910  10.1033960  38.3201900  48.3966030
   9.4149480  37.6583440  48.3316020  10.8239980  37.8740170  48.8414490
  10.7334360  34.9153530  34.4556290  11.0136650  34.0721430  34.8115710
   9.9600090  35.1476640  34.9695040   2.0528850  37.2045920  31.9147290
   2.3554750  37.2113350  31.0066440   2.7923440  36.8543780  32.4114950
   6.8877490  51.9702780  46.8963730   6.8136190  52.8737920  47.2036100
   5.9856330  51.6514680  46.8685800   5.2713780  36.1480540  32.9003490
   4.9235780  35.4704530  32.3205940   5.4726550  35.6870050  33.7146880
   7.4362820  51.1361290  34.5190090   8.3313610  51.4746260  34.5408850
   7.4680450  50.4140700  33.8914370   2.8866700  47.6286380  37.8599320
   2.5862240  47.5051350  38.7603230   2.7804190  46.7694970  37.4515050
  14.4157170  49.6664960  47.2256290  13.8159160  49.7257520  46.4820210
  14.5451070  48.7269940  47.3553140  15.6558620  47.4082780  32.5626000
  14.8251580  47.4759430  33.0333230  15.8330450  48.2986900  32.2592860
  15.1115080  44.1530260  35.0660200  15.8733990  44.7226910  35.1719890
  15.1269450  43.5857460  35.8368510  16.1175050  45.0080360  39.9102130
  16.4883880  44.2247680  39.5038100  16.7576980  45.6969460  39.7319430
  13.1008810  46.3916940  45.3232450  12.2868650  46.8214100  45.5858240
  13.5083010  47.0035350  44.7101500  15.1634250  44.4464630  32.2232720
  15.4383090  45.3543510  32.0951940  14.9744990  44.3827160  33.1594710
  11.5609860  37.4709480  33.5186350  11.9794740  37.2840460  32.6783010
  11.2545920  36.6188530  33.8289280  15.0599590  42.3833620  37.2162150
  14.6843190  41.6161550  36.7843440  14.3302710  42.7656320  37.7037080
  12.8887280  36.7561570  49.6281370  13.7657460  36.7644970  50.0115370
  12.9008120  36.0192410  49.0173720  14.3350550  40.6091110  40.5169390
  14.8588030  40.1153760  39.8859560  14.9209970  40.7441470  41.2616960
  13.8250520  39.8664460  36.4561800  14.3209640  39.6335330  37.2410680
  13.6266590  39.0276300  36.0399440  13.1584860  51.1435540  38.8500720
  13.7543930  50.8220110  38.1735140  13.4163010  50.6707360  39.6413990
   4.7653460  49.1313040  44.6001070   4.5244820  49.3987600  43.7131590
   5.7056100  49.3018770  44.6551930   6.9707880  35.5945730  48.3557580
   6.9096770  36.1867560  49.1052990   7.9108260  35.4871690  48.2107840
   9.6082440  35.2515790  47.9949870  10.2222850  35.5695080  47.3330950
  10.1532000  34.7664380  48.6145730  16.0257620  51.1507420  45.4011710
  15.5315900  51.5476290  44.6838840  15.4170910  50.5256630  45.7948990
  10.3490480  33.8147930  44.3219160   9.4750320  34.1483040  44.1192090
  10.2401230  33.3421110  45.1471030  11.2562460  36.0218800  45.7060880
  10.9275820  35.2070560  45.3262610  12.2044760  35.9788610  45.5826570
  13.7097070  51.7930840  42.6798450  13.2500040  52.5446650  42.3056470
  13.0809530  51.0737310  42.6213250   4.1392790  50.1019080  41.8546580
   4.6557810  49.4906440  41.3294840   4.7890170  50.6047860  42.3457590
   6.8788290  50.9927570  42.6815560   7.1666100  50.7381870  41.8048570
   7.3911510  50.4404930  43.2721130   8.0965300  34.7317770  43.2612070
   7.3137090  35.2063270  43.5408830   7.8028230  33.8272600  43.1525250
   5.9819520  37.1504520  38.7728100   5.1694030  36.7761410  38.4323980
   6.4861160  36.3949600  39.0749290   1.8130860  35.5629300  34.3227760
   2.3423620  34.7759100  34.1935710   2.4459180  36.2420490  34.5563290
   4.0068700  35.3004440  37.3773150   3.3771440  34.5991750  37.5443280
   3.4673840  36.0608570  37.1606310   6.9460650  51.9143670  50.0483760
   7.8727960  51.6787940  50.0919720   6.9311080  52.7415670  49.5669790
  15.1805710  51.4569240  37.0458010  15.3557900  50.7706980  36.4018930
  14.4827280  51.9816290  36.6534680   4.1324260  34.5788420  49.8125640
   3.8508530  35.0822020  49.0486460   4.5143960  33.7810170  49.4467770
   3.0233360  51.8464080  34.5993320   3.7552180  51.5623360  34.0517210
   3.2827030  51.6077360  35.4892700   2.1848150  47.9628810  34.6039650
   1.5557030  48.4313910  35.1525480   2.2995980  47.1178030  35.0385840
  10.7339720  33.9942000  50.3906110  10.6205170  34.3136610  51.2857630
  11.5509460  34.3954510  50.0943390  13.5138210  51.1413530  49.8724800
  14.3063530  50.6462760  49.6650760  13.8071360  51.8203670  50.4800410
   9.6397870  42.0134470  20.7540850   9.5591920  41.0989080  20.4832560
   9.2262290  42.5101540  20.0480560   7.7715910  43.7913490  22.6350120
   6.9958010  43.3113930  22.9248690   8.4228840  43.1119140  22.4606280
  11.7923340  48.1973680  21.4149250  11.3304870  47.4260920  21.7436420
  12.6048890  48.2239750  21.9201700   1.7683000  48.1373390  23.7083900
   2.0711040  47.2471130  23.5294120   2.5126590  48.6943610  23.4806150
   8.0186650  50.4831690  21.0353240   7.3998090  50.9389190  20.4647680
   8.8738430  50.6383150  20.6342940   7.2124900  46.4670680  22.6420280
   7.1433180  45.5260620  22.4809410   7.9744760  46.5572090  23.2142850
   8.2430070  39.2741060  22.8689210   8.6194890  38.4012940  22.7562880
   8.1449580  39.6099760  21.9779650   2.3735080  37.6466690  18.3306650
   2.4801830  38.5470420  18.6375410   1.4627440  37.5984660  18.0401300
  12.0254190  36.7691500  19.8017550  12.8463810  36.2788070  19.8443030
  12.0588270  37.3589160  20.5549390   4.2142810  40.6153060  22.6631830
   4.7221030  41.1134030  23.3036850   4.7456050  39.8388260  22.4871190
  16.3153740  38.7858250  26.3661180  15.6105910  39.1739960  25.8476290
  16.5811660  39.4808540  26.9682110   2.4978910  35.2551620  26.9295250
   2.4997350  35.7724010  26.1241150   1.6683220  34.7781800  26.9065180
   8.8850000  45.3670930  18.4285150   8.2667270  45.8320380  17.8647870
   9.3973250  46.0598410  18.8454660   3.7481760  44.8946800  25.1068750
   3.4151140  45.5215720  25.7489820   3.9248440  45.4208680  24.3270420
  12.2615670  38.7091880  22.5745090  11.5571240  38.9976770  23.1548200
  12.6227830  39.5191990  22.2144650   2.1794240  36.9661580  24.9365700
   2.5211050  37.8103630  24.6419570   1.2410050  37.1145320  25.0531040
   2.9600860  46.8627600  26.9217930   3.5774860  47.5378680  26.6402380
   2.0993980  47.2715580  26.8305430  13.8778450  48.3267010  24.8372570
  13.1941970  48.9966120  24.8289240  14.4172740  48.5247660  24.0717430
  15.3302590  38.1546670  22.9654300  14.3827500  38.1885650  23.0969730
  15.6552580  38.9685620  23.3503660   5.8622130  34.4543850  21.2610290
   6.1697110  33.8990740  20.5445790   4.9322830  34.5888310  21.0783280
  11.4137190  50.1711140  23.5517750  11.4264350  49.7673430  22.6840010
  10.8612410  50.9458430  23.4479180  12.7082610  46.8927360  18.6407920
  12.5978940  45.9501690  18.7657340  12.7050860  47.2543000  19.5270680
  10.8122630  45.0740980  24.8800360  11.2291420  44.8601090  24.0453820
  11.5362450  45.3313770  25.4508980   8.2502890  42.5192680  17.9970410
   7.3232170  42.4530060  18.2258880   8.4027710  43.4572810  17.8825650
   8.2371970  38.7909680  14.9937570   7.2975640  38.9523640  15.0790030
   8.5555230  39.5095360  14.4473560  14.7584730  43.4728200  24.9716600
  13.9303360  43.5421290  24.4966730  15.3535210  44.0582510  24.5032430
  12.2800180  44.0812980  18.5005660  11.6612600  43.7432530  17.8531960
  12.2624630  43.4372740  19.2084850  11.7226740  40.2597520  25.9171470
  11.3097920  41.0851230  26.1711460  10.9902690  39.6742560  25.7247830
   3.8559530  43.0457420  20.7790140   3.4516530  42.3334670  20.2836040
   3.9422650  42.7010660  21.6678180   4.3241230  46.7324980  22.9429350
   4.0269520  46.1270450  22.2637130   5.2741050  46.7702290  22.8318710
   2.5688150  39.8200630  24.5589180   3.1202740  39.9295970  23.7842430
   3.0831660  40.1938230  25.2744410  12.4126840  50.3056850  26.6052450
  11.9357400  51.1129040  26.4125060  11.7288630  49.6535180  26.7578660
   3.4159660  46.4706670  29.5937150   2.5188190  46.6946640  29.8410550
   3.4412530  46.5941610  28.6448550  10.4564880  43.3199790  15.5078410
  10.8958160  42.4822220  15.3616230  11.1693300  43.9529190  15.5942550
   2.2430880  43.3419990  28.1694520   2.1038650  44.2142790  28.5381920
   1.3612240  42.9992800  28.0242460   8.5660260  48.2595860  19.4759650
   9.0056170  49.0020190  19.0615040   8.5047150  48.5022430  20.3998610
   4.0411230  49.2841690  30.3779670   4.0126660  49.6884640  29.5108100
   3.8776200  48.3552050  30.2151270  14.0382020  34.5742600  13.8219450
  13.7254680  34.6669430  14.7218520  14.7994490  35.1523630  13.7716880
  15.9926050  50.0668790  31.6743840  16.4685770  50.5451680  32.3532920
  16.6133210  49.9986280  30.9489340  15.3959300  47.2581640  28.8343850
  15.5222360  47.0193520  27.9161030  15.4380680  46.4266180  29.3065930
   9.2576040  50.9609640  27.4038660   9.7720710  50.8717650  28.2061090
   8.4145120  51.3069340  27.6966570  11.2330440  51.2464980  16.8322660
  11.0731580  50.9567920  17.7304490  11.0677150  50.4705110  16.2967890
   3.7118820  51.0263510  18.6094280   3.5361300  50.1099050  18.3962080
   2.8574560  51.3850800  18.8492080  10.9356570  48.7552540  15.3920660
  10.2421730  48.7529830  14.7322940  11.6779430  48.3311860  14.9614830
  10.5006500  50.3815250  19.4669150  10.9563450  49.6004630  19.7807770
  10.8399020  51.0922070  20.0110330  15.2483310  39.3114100  29.7993590
  14.6327580  39.8193770  29.2709050  14.9279730  38.4112430  29.7419530
   3.0227820  35.2837470  21.6620460   2.5795970  36.0647010  21.3304980
   3.5812810  35.6067360  22.3691400   7.3097630  38.1505990  27.2655780
   6.8477000  38.3589010  28.0775720   6.9075740  37.3365340  26.9626450
  12.3102140  39.3714940  28.3952440  11.4595730  39.0720690  28.7161510
  12.1503930  39.6156950  27.4836260   9.4051850  40.8716690  30.4951230
   9.7305260  40.0380440  30.1553460  10.1932180  41.3945210  30.6429560
   6.1386640  34.9048170  16.5426290   5.5140820  34.9008040  17.2679600
   6.0516760  34.0379130  16.1462260   5.0603720  35.8284800  23.5210060
   5.3576050  36.7347630  23.4402080   5.6089280  35.3403580  22.9069630
   2.8142040  40.4071040  19.3901710   2.5882960  40.1908210  20.2948330
   2.0334570  40.8399500  19.0447680  10.0439800  40.4134410  17.9892360
   9.4448690  41.1370210  17.8055980  10.5919410  40.3511190  17.2068810
   5.2541250  41.3056620  30.0561980   5.1584850  40.3651350  29.9062380
   6.0973230  41.5271690  29.6610050   8.6504670  39.0497950  20.0195640
   9.0434240  39.3670150  19.2064330   9.0121520  38.1709830  20.1340160
   6.9596840  37.8005260  31.2792500   6.2695160  37.6077460  31.9138590
   7.7029140  38.0839900  31.8116800   9.2359810  41.6403700  24.1146420
   8.5040930  42.1490510  24.4636520   8.8384150  40.8233680  23.8135200
   5.6737200  38.3157900  22.5198910   5.6773260  37.8747850  21.6703450
   6.5688320  38.6375230  22.6270730   5.7357350  39.3169980  15.5105670
   5.8570170  39.2756460  16.4591490   5.3505860  40.1794130  15.3552400
   9.6985720  37.0937380  23.5269360   9.7158460  37.5446030  24.3711210
   9.4501300  36.1943020  23.7402800   4.7478850  41.6271120  14.9088970
   4.1795750  41.1789370  14.2824880   5.4567850  41.9863900  14.3754120
   5.9745170  42.3759680  24.2664320   6.3415300  41.9018250  25.0125660
   5.7850230  43.2501250  24.6072660   3.7644540  41.4168320  26.5848530
   3.4601610  42.2960300  26.8098890   4.7191000  41.4768110  26.6205970
   2.2926330  45.6229310  17.1815380   1.5188590  45.0826930  17.0214100
   3.0220960  45.1035920  16.8433140  13.0514310  44.6194670  22.9741770
  13.7713430  45.1149960  22.5837880  12.8496130  43.9412560  22.3295640
   8.5124250  36.0132630  17.1171160   7.6988860  35.5145800  17.0416470
   8.3186200  36.8530880  16.7007510   8.4333110  44.6903730  28.8610770
   8.3670420  43.7699400  28.6068360   7.8038250  44.7879170  29.5755410
  11.2272640  40.3852280  15.4133320  12.1152260  40.6969510  15.2384660
  11.1977730  39.5124530  15.0213900   2.3363730  45.2909690  20.8194190
   2.8542400  44.4877950  20.7651080   1.8847750  45.2288830  21.6611020
   7.2233230  46.5575970  16.0921490   7.5648930  47.3018200  15.5964810
   6.3945940  46.8707090  16.4546320   3.0221390  42.7155300  30.6159440
   2.7221530  42.8612480  29.7187260   3.7932630  42.1560590  30.5232830
   8.3649840  47.5124300  28.6114570   8.3794380  46.5805260  28.3933480
   7.6574940  47.5984060  29.2504340  13.4986910  41.6964120  14.8813180
  13.4150630  42.1278340  14.0309620  14.2181100  42.1562470  15.3140000
  14.5761050  44.1531640  27.9583150  13.8509240  44.7460420  27.7612540
  15.1036510  44.1455180  27.1596520  14.5274160  48.5506380  17.6095310
  13.8850320  47.8962000  17.8839030  14.1404820  48.9561470  16.8335980
  10.1060640  45.8791810  21.4567000  10.4584460  45.2819940  20.7968370
   9.2222970  45.5536040  21.6275250   6.1923920  46.6389500  18.8637410
   6.8795050  47.1858710  19.2445000   5.4056340  47.1830230  18.8987020
   5.4951130  43.6435530  18.4762770   5.9513910  44.4540780  18.7022960
   5.1439340  43.3258670  19.3081260   7.7983740  49.1541870  25.7055070
   8.4425960  49.3601250  26.3828490   8.1613180  48.3930270  25.2525920
   9.0715820  47.1574220  24.4232520   9.7138050  46.4567380  24.5364690
   9.5965170  47.9372660  24.2429410  12.9171540  47.4422840  14.1471660
  12.6909120  46.7253280  14.7396300  12.5267740  47.1935280  13.3093410
  10.8453440  47.9569120  27.6268580  11.1809680  48.5435810  28.3046500
   9.9253780  47.8261830  27.8566370  12.4987790  45.3594780  15.8085820
  12.2109490  45.8207470  16.5963700  13.2939960  44.8992550  16.0770040
   6.6742020  48.0060450  30.7956640   6.3538890  47.2869690  31.3402330
   6.0000380  48.6815520  30.8692700   4.7156190  48.8520900  15.7389790
   4.7066290  49.5850590  15.1234300   3.7954550  48.6052480  15.8316750
   9.8895620  38.2386610  26.1593440  10.2576440  37.4181820  26.4873010
   9.0293820  38.2988500  26.5749090  13.2557650  37.1943550  16.9681000
  12.6270810  37.2989220  16.2539230  12.7609570  37.4140330  17.7574880
   7.7015790  48.9149140  14.4014980   7.8027770  48.7113130  13.4716960
   6.8017530  48.6607420  14.6062760   5.2241680  39.4729500  18.3838880
   4.5157830  39.9415840  18.8252490   5.5086160  38.8151510  19.0184070
   6.8497610  40.8926200  26.3831410   7.3482860  41.3672020  27.0483260
   6.9920560  39.9689720  26.5901440   9.2557110  36.1980160  19.8234670
   9.1324890  36.2166290  18.8744180  10.2041670  36.2459100  19.9433070
   6.3433900  51.4335460  19.0962650   6.5975400  51.3956850  18.1742020
   5.3946380  51.3068790  19.0890900   3.4276700  37.7814580  15.7589590
   4.2767230  38.2184730  15.6929780   3.0607970  38.0934840  16.5861650
  14.0564470  37.1094160  27.2259800  13.5538070  37.8499560  27.5653610
  14.8721130  37.4978160  26.9096590  12.3486480  42.3527340  20.6721160
  11.4076620  42.3677570  20.8468850  12.6630550  41.5663300  21.1181460
   2.3268120  44.0346940  14.2325120   3.0931390  43.9228300  14.7950550
   2.4042810  43.3384910  13.5801890  14.3512060  49.5236190  22.3475420
  14.4759480  50.3467360  22.8199230  15.2177620  49.3126920  21.9999570
   1.8229590  51.6167400  22.0192550   2.5592070  51.0682860  22.2901120
   2.2070510  52.4823410  21.8798540   4.9331900  50.7897710  13.8418120
   5.7260510  51.0786540  13.3899910   4.4136250  50.3589880  13.1630600
   9.6652500  46.9093340  31.1553540   9.0590660  46.9324940  30.4149290
   9.3606610  46.1776380  31.6920790  11.0952870  50.6373630  29.7662950
  12.0474620  50.5531650  29.7163190  10.9481090  51.3015340  30.4396740
  13.9862070  50.0167840  15.2654860  13.7003580  49.6032980  14.4509040
  13.7881620  50.9455550  15.1455380   5.4509300  46.0101120  13.7060470
   5.3459940  45.3953470  14.4321850   5.2833520  45.4867010  12.9223480
   5.6023620  44.6957920  29.6849700   4.8369290  45.2642920  29.6004370
   5.7839580  44.4034130  28.7917930   8.6912030  45.0721150  14.3102460
   8.1422130  45.5190450  14.9545200   9.3131290  44.5670400  14.8340130
  12.7446970  46.4263250  30.2424720  13.4856440  46.7639010  29.7392180
  11.9819650  46.5955310  29.6894490   4.3587150  44.0312070  16.2067760
   4.7803570  43.8651940  17.0499150   4.4837990  43.2212300  15.7122900
   2.5214570  40.0108620  29.0138740   1.9911030  39.5199570  28.3862080
   3.1902640  40.4392820  28.4796670   6.8714790  43.0549680  13.4544860
   7.3920450  42.3398700  13.0886010   7.5183190  43.6935550  13.7545370
  11.4192630  44.4778080  28.7779930  11.8333650  44.6323160  29.6270350
  10.4843630  44.6033300  28.9405710  11.8914800  41.8174240  30.7819080
  12.4735570  41.0626560  30.6939560  12.0676570  42.3481680  30.0050560
   3.0086870  36.9770990  29.0936030   2.9143740  36.3591740  28.3686900
   2.4284260  37.7037280  28.8665940   5.7748310  35.5344230  26.1263420
   5.3265610  35.5568490  25.2808970   5.1413510  35.1363250  26.7233720
   6.1807860  44.4298560  26.7475860   6.5995970  45.2731290  26.5752100
   5.2616490  44.5670600  26.5182640   8.5171760  42.1614740  28.1313700
   8.6367970  41.5655880  28.8708540   9.3765760  42.1984430  27.7115000
  10.8559660  42.7151930  26.7076210  10.3294880  43.2394550  26.1041350
  11.1991000  43.3479320  27.3385940   3.2546050  40.1045300  13.1525920
   3.0535110  39.2412660  13.5139260   3.0838100  40.0178660  12.2147520
   4.0315280  50.7351570  27.8633590   3.4936370  51.4597630  27.5442290
   4.2849240  50.2581910  27.0730930   5.2840530  38.7036090  29.3889520
   5.8740220  38.3951940  30.0767340   4.4660770  38.2315840  29.5449420
  10.1033960  38.3201900  29.6222540   9.4149480  37.6583440  29.5572530
  10.8239980  37.8740170  30.0671000  10.7334360  34.9153530  15.6812800
  11.0136650  34.0721430  16.0372220   9.9600090  35.1476640  16.1951550
   2.0528850  37.2045920  13.1403800   2.3554750  37.2113350  12.2322950
   2.7923440  36.8543780  13.6371460   6.8877490  51.9702780  28.1220240
   6.8136190  52.8737920  28.4292610   5.9856330  51.6514680  28.0942310
   5.2713780  36.1480540  14.1260000   4.9235780  35.4704530  13.5462450
   5.4726550  35.6870050  14.9403390   7.4362820  51.1361290  15.7446600
   8.3313610  51.4746260  15.7665360   7.4680450  50.4140700  15.1170880
   2.8866700  47.6286380  19.0855830   2.5862240  47.5051350  19.9859740
   2.7804190  46.7694970  18.6771560  14.4157170  49.6664960  28.4512800
  13.8159160  49.7257520  27.7076720  14.5451070  48.7269940  28.5809650
  15.6558620  47.4082780  13.7882510  14.8251580  47.4759430  14.2589740
  15.8330450  48.2986900  13.4849370  15.1115080  44.1530260  16.2916710
  15.8733990  44.7226910  16.3976400  15.1269450  43.5857460  17.0625020
  16.1175050  45.0080360  21.1358640  16.4883880  44.2247680  20.7294610
  16.7576980  45.6969460  20.9575940  13.1008810  46.3916940  26.5488960
  12.2868650  46.8214100  26.8114750  13.5083010  47.0035350  25.9358010
  15.1634250  44.4464630  13.4489230  15.4383090  45.3543510  13.3208450
  14.9744990  44.3827160  14.3851220  11.5609860  37.4709480  14.7442860
  11.9794740  37.2840460  13.9039520  11.2545920  36.6188530  15.0545790
  15.0599590  42.3833620  18.4418660  14.6843190  41.6161550  18.0099950
  14.3302710  42.7656320  18.9293590  14.4499210  41.5305140  28.0758180
  14.2185300  41.3017890  27.1756130  14.7103760  42.4504690  28.0303070
  12.8887280  36.7561570  30.8537880  13.7657460  36.7644970  31.2371880
  12.9008120  36.0192410  30.2430230  14.3350550  40.6091110  21.7425900
  14.8588030  40.1153760  21.1116070  14.9209970  40.7441470  22.4873470
  14.5140270  40.6930980  25.2645450  13.5642980  40.6594520  25.3790440
  14.6953280  41.6031090  25.0295220  13.8250520  39.8664460  17.6818310
  14.3209640  39.6335330  18.4667190  13.6266590  39.0276300  17.2655950
  15.2537680  38.5025410  20.2155990  15.1436960  38.3481450  21.1538260
  16.0145270  37.9746350  19.9731400  16.1427950  36.3333330  13.4562130
  17.0677260  36.2014510  13.2480420  16.1203740  36.4126150  14.4098580
  16.2166440  37.1043990  16.0818840  15.4217940  37.0389110  16.6111750
  16.4209720  38.0394630  16.0704190  13.1584860  51.1435540  20.0757230
  13.7543930  50.8220110  19.3991650  13.4163010  50.6707360  20.8670500
   4.7653460  49.1313040  25.8257580   4.5244820  49.3987600  24.9388100
   5.7056100  49.3018770  25.8808440   6.9707880  35.5945730  29.5814090
   6.9096770  36.1867560  30.3309500   7.9108260  35.4871690  29.4364350
   9.6082440  35.2515790  29.2206380  10.2222850  35.5695080  28.5587460
  10.1532000  34.7664380  29.8402240  16.0257620  51.1507420  26.6268220
  15.5315900  51.5476290  25.9095350  15.4170910  50.5256630  27.0205500
  10.3490480  33.8147930  25.5475670   9.4750320  34.1483040  25.3448600
  10.2401230  33.3421110  26.3727540  11.2562460  36.0218800  26.9317390
  10.9275820  35.2070560  26.5519120  12.2044760  35.9788610  26.8083080
  13.7097070  51.7930840  23.9054960  13.2500040  52.5446650  23.5312980
  13.0809530  51.0737310  23.8469760   4.1392790  50.1019080  23.0803090
   4.6557810  49.4906440  22.5551350   4.7890170  50.6047860  23.5714100
   6.8788290  50.9927570  23.9072070   7.1666100  50.7381870  23.0305080
   7.3911510  50.4404930  24.4977640   8.0965300  34.7317770  24.4868580
   7.3137090  35.2063270  24.7665340   7.8028230  33.8272600  24.3781760
  12.6486370  35.4340870  22.5317670  13.0894460  35.3785970  21.6839270
  12.3793960  36.3498880  22.6027850  14.5124940  35.0656110  20.5426490
  14.4513340  34.1217330  20.3957510  15.2916970  35.1736200  21.0879950
   5.9819520  37.1504520  19.9984610   5.1694030  36.7761410  19.6580490
   6.4861160  36.3949600  20.3005800  10.4844500  33.8146970  21.2367680
  11.0873870  34.3867180  21.7116200   9.7437490  34.3786410  21.0141580
  13.6279100  34.2168530  16.5107960  13.8229730  35.1151980  16.7775390
  12.8408970  33.9855610  17.0040910   1.8130860  35.5629300  15.5484270
   2.3423620  34.7759100  15.4192220   2.4459180  36.2420490  15.7819800
   4.0068700  35.3004440  18.6029660   3.3771440  34.5991750  18.7699790
   3.4673840  36.0608570  18.3862820   6.9460650  51.9143670  31.2740270
   7.8727960  51.6787940  31.3176230   6.9311080  52.7415670  30.7926300
  15.1805710  51.4569240  18.2714520  15.3557900  50.7706980  17.6275440
  14.4827280  51.9816290  17.8791190   4.1324260  34.5788420  31.0382150
   3.8508530  35.0822020  30.2742970   4.5143960  33.7810170  30.6724280
   3.0233360  51.8464080  15.8249830   3.7552180  51.5623360  15.2773720
   3.2827030  51.6077360  16.7149210   2.1848150  47.9628810  15.8296160
   1.5557030  48.4313910  16.3781990   2.2995980  47.1178030  16.2642350
  10.7339720  33.9942000  31.6162620  10.6205170  34.3136610  32.5114140
  11.5509460  34.3954510  31.3199900  13.5138210  51.1413530  31.0981310
  14.3063530  50.6462760  30.8907270  13.8071360  51.8203670  31.7056920
   7.7715910  43.7913490   3.8606630   6.9958010  43.3113930   4.1505200
   8.4228840  43.1119140   3.6862790  11.7923340  48.1973680   2.6405760
  11.3304870  47.4260920   2.9692930  12.6048890  48.2239750   3.1458210
   1.7683000  48.1373390   4.9340410   2.0711040  47.2471130   4.7550630
   2.5126590  48.6943610   4.7062660   8.0186650  50.4831690   2.2609750
   7.3998090  50.9389190   1.6904190   8.8738430  50.6383150   1.8599450
   7.2124900  46.4670680   3.8676790   7.1433180  45.5260620   3.7065920
   7.9744760  46.5572090   4.4399360   8.2430070  39.2741060   4.0945720
   8.6194890  38.4012940   3.9819390   8.1449580  39.6099760   3.2036160
   4.2142810  40.6153060   3.8888340   4.7221030  41.1134030   4.5293360
   4.7456050  39.8388260   3.7127700  16.3153740  38.7858250   7.5917690
  15.6105910  39.1739960   7.0732800  16.5811660  39.4808540   8.1938620
   2.4978910  35.2551620   8.1551760   2.4997350  35.7724010   7.3497660
   1.6683220  34.7781800   8.1321690   3.7481760  44.8946800   6.3325260
   3.4151140  45.5215720   6.9746330   3.9248440  45.4208680   5.5526930
  12.2615670  38.7091880   3.8001600  11.5571240  38.9976770   4.3804710
  12.6227830  39.5191990   3.4401160   2.1794240  36.9661580   6.1622210
   2.5211050  37.8103630   5.8676080   1.2410050  37.1145320   6.2787550
   2.9600860  46.8627600   8.1474440   3.5774860  47.5378680   7.8658890
   2.0993980  47.2715580   8.0561940  13.8778450  48.3267010   6.0629080
  13.1941970  48.9966120   6.0545750  14.4172740  48.5247660   5.2973940
  15.3302590  38.1546670   4.1910810  14.3827500  38.1885650   4.3226240
  15.6552580  38.9685620   4.5760170   5.8622130  34.4543850   2.4866800
   6.1697110  33.8990740   1.7702300   4.9322830  34.5888310   2.3039790
  11.4137190  50.1711140   4.7774260  11.4264350  49.7673430   3.9096520
  10.8612410  50.9458430   4.6735690  10.8122630  45.0740980   6.1056870
  11.2291420  44.8601090   5.2710330  11.5362450  45.3313770   6.6765490
  14.7584730  43.4728200   6.1973110  13.9303360  43.5421290   5.7223240
  15.3535210  44.0582510   5.7288940  11.7226740  40.2597520   7.1427980
  11.3097920  41.0851230   7.3967970  10.9902690  39.6742560   6.9504340
   4.3241230  46.7324980   4.1685860   4.0269520  46.1270450   3.4893640
   5.2741050  46.7702290   4.0575220   2.5688150  39.8200630   5.7845690
   3.1202740  39.9295970   5.0098940   3.0831660  40.1938230   6.5000920
  12.4126840  50.3056850   7.8308960  11.9357400  51.1129040   7.6381570
  11.7288630  49.6535180   7.9835170   3.4159660  46.4706670  10.8193660
   2.5188190  46.6946640  11.0667060   3.4412530  46.5941610   9.8705060
   2.2430880  43.3419990   9.3951030   2.1038650  44.2142790   9.7638430
   1.3612240  42.9992800   9.2498970   4.0411230  49.2841690  11.6036180
   4.0126660  49.6884640  10.7364610   3.8776200  48.3552050  11.4407780
  15.9926050  50.0668790  12.9000350  16.4685770  50.5451680  13.5789430
  16.6133210  49.9986280  12.1745850  15.3959300  47.2581640  10.0600360
  15.5222360  47.0193520   9.1417540  15.4380680  46.4266180  10.5322440
   9.2576040  50.9609640   8.6295170   9.7720710  50.8717650   9.4317600
   8.4145120  51.3069340   8.9223080  15.2483310  39.3114100  11.0250100
  14.6327580  39.8193770  10.4965560  14.9279730  38.4112430  10.9676040
   3.0227820  35.2837470   2.8876970   2.5795970  36.0647010   2.5561490
   3.5812810  35.6067360   3.5947910   7.3097630  38.1505990   8.4912290
   6.8477000  38.3589010   9.3032230   6.9075740  37.3365340   8.1882960
  12.3102140  39.3714940   9.6208950  11.4595730  39.0720690   9.9418020
  12.1503930  39.6156950   8.7092770   9.4051850  40.8716690  11.7207740
   9.7305260  40.0380440  11.3809970  10.1932180  41.3945210  11.8686070
   5.0603720  35.8284800   4.7466570   5.3576050  36.7347630   4.6658590
   5.6089280  35.3403580   4.1326140   5.2541250  41.3056620  11.2818490
   5.1584850  40.3651350  11.1318890   6.0973230  41.5271690  10.8866560
   6.9596840  37.8005260  12.5049010   6.2695160  37.6077460  13.1395100
   7.7029140  38.0839900  13.0373310   9.2359810  41.6403700   5.3402930
   8.5040930  42.1490510   5.6893030   8.8384150  40.8233680   5.0391710
   5.6737200  38.3157900   3.7455420   5.6773260  37.8747850   2.8959960
   6.5688320  38.6375230   3.8527240   9.6985720  37.0937380   4.7525870
   9.7158460  37.5446030   5.5967720   9.4501300  36.1943020   4.9659310
  13.1256470  34.5069560  10.5912250  13.4502240  33.7759220  11.1170230
  13.1612980  34.1883200   9.6893240   5.9745170  42.3759680   5.4920830
   6.3415300  41.9018250   6.2382170   5.7850230  43.2501250   5.8329170
   3.7644540  41.4168320   7.8105040   3.4601610  42.2960300   8.0355400
   4.7191000  41.4768110   7.8462480  13.0514310  44.6194670   4.1998280
  13.7713430  45.1149960   3.8094390  12.8496130  43.9412560   3.5552150
   8.4333110  44.6903730  10.0867280   8.3670420  43.7699400   9.8324870
   7.8038250  44.7879170  10.8011920   2.3363730  45.2909690   2.0450700
   2.8542400  44.4877950   1.9907590   1.8847750  45.2288830   2.8867530
   3.0221390  42.7155300  11.8415950   2.7221530  42.8612480  10.9443770
   3.7932630  42.1560590  11.7489340   8.3649840  47.5124300   9.8371080
   8.3794380  46.5805260   9.6189990   7.6574940  47.5984060  10.4760850
  14.5761050  44.1531640   9.1839660  13.8509240  44.7460420   8.9869050
  15.1036510  44.1455180   8.3853030  10.1060640  45.8791810   2.6823510
  10.4584460  45.2819940   2.0224880   9.2222970  45.5536040   2.8531760
   7.7983740  49.1541870   6.9311580   8.4425960  49.3601250   7.6085000
   8.1613180  48.3930270   6.4782430   9.0715820  47.1574220   5.6489030
   9.7138050  46.4567380   5.7621200   9.5965170  47.9372660   5.4685920
  10.8453440  47.9569120   8.8525090  11.1809680  48.5435810   9.5303010
   9.9253780  47.8261830   9.0822880   6.6742020  48.0060450  12.0213150
   6.3538890  47.2869690  12.5658840   6.0000380  48.6815520  12.0949210
   9.8895620  38.2386610   7.3849950  10.2576440  37.4181820   7.7129520
   9.0293820  38.2988500   7.8005600   6.8497610  40.8926200   7.6087920
   7.3482860  41.3672020   8.2739770   6.9920560  39.9689720   7.8157950
  14.0564470  37.1094160   8.4516310  13.5538070  37.8499560   8.7910120
  14.8721130  37.4978160   8.1353100  12.3486480  42.3527340   1.8977670
  11.4076620  42.3677570   2.0725360  12.6630550  41.5663300   2.3437970
  14.3512060  49.5236190   3.5731930  14.4759480  50.3467360   4.0455740
  15.2177620  49.3126920   3.2256080   1.8229590  51.6167400   3.2449060
   2.5592070  51.0682860   3.5157630   2.2070510  52.4823410   3.1055050
   9.6652500  46.9093340  12.3810050   9.0590660  46.9324940  11.6405800
   9.3606610  46.1776380  12.9177300  11.0952870  50.6373630  10.9919460
  12.0474620  50.5531650  10.9419700  10.9481090  51.3015340  11.6653250
   5.6023620  44.6957920  10.9106210   4.8369290  45.2642920  10.8260880
   5.7839580  44.4034130  10.0174440  12.7446970  46.4263250  11.4681230
  13.4856440  46.7639010  10.9648690  11.9819650  46.5955310  10.9151000
   2.5214570  40.0108620  10.2395250   1.9911030  39.5199570   9.6118590
   3.1902640  40.4392820   9.7053180  11.4192630  44.4778080  10.0036440
  11.8333650  44.6323160  10.8526860  10.4843630  44.6033300  10.1662220
  11.8914800  41.8174240  12.0075590  12.4735570  41.0626560  11.9196070
  12.0676570  42.3481680  11.2307070   3.0086870  36.9770990  10.3192540
   2.9143740  36.3591740   9.5943410   2.4284260  37.7037280  10.0922450
   5.7748310  35.5344230   7.3519930   5.3265610  35.5568490   6.5065480
   5.1413510  35.1363250   7.9490230   6.1807860  44.4298560   7.9732370
   6.5995970  45.2731290   7.8008610   5.2616490  44.5670600   7.7439150
   8.5171760  42.1614740   9.3570210   8.6367970  41.5655880  10.0965050
   9.3765760  42.1984430   8.9371510  10.8559660  42.7151930   7.9332720
  10.3294880  43.2394550   7.3297860  11.1991000  43.3479320   8.5642450
   4.0315280  50.7351570   9.0890100   3.4936370  51.4597630   8.7698800
   4.2849240  50.2581910   8.2987440   5.2840530  38.7036090  10.6146030
   5.8740220  38.3951940  11.3023850   4.4660770  38.2315840  10.7705930
  10.1033960  38.3201900  10.8479050   9.4149480  37.6583440  10.7829040
  10.8239980  37.8740170  11.2927510   6.8877490  51.9702780   9.3476750
   6.8136190  52.8737920   9.6549120   5.9856330  51.6514680   9.3198820
  14.4157170  49.6664960   9.6769310  13.8159160  49.7257520   8.9333230
  14.5451070  48.7269940   9.8066160  16.1175050  45.0080360   2.3615150
  16.4883880  44.2247680   1.9551120  16.7576980  45.6969460   2.1832450
  13.1008810  46.3916940   7.7745470  12.2868650  46.8214100   8.0371260
  13.5083010  47.0035350   7.1614520  14.4499210  41.5305140   9.3014690
  14.2185300  41.3017890   8.4012640  14.7103760  42.4504690   9.2559580
  12.8887280  36.7561570  12.0794390  13.7657460  36.7644970  12.4628390
  12.9008120  36.0192410  11.4686740  14.3350550  40.6091110   2.9682410
  14.8588030  40.1153760   2.3372580  14.9209970  40.7441470   3.7129980
  14.5140270  40.6930980   6.4901960  13.5642980  40.6594520   6.6046950
  14.6953280  41.6031090   6.2551730  13.6003400  34.4419540   7.8995500
  14.2375620  35.0553680   8.2654690  13.7478290  34.4780200   6.9544730
   4.7653460  49.1313040   7.0514090   4.5244820  49.3987600   6.1644610
   5.7056100  49.3018770   7.1064950   6.9707880  35.5945730  10.8070600
   6.9096770  36.1867560  11.5566010   7.9108260  35.4871690  10.6620860
   9.6082440  35.2515790  10.4462890  10.2222850  35.5695080   9.7843970
  10.1532000  34.7664380  11.0658750  16.0257620  51.1507420   7.8524730
  15.5315900  51.5476290   7.1351860  15.4170910  50.5256630   8.2462010
  10.3490480  33.8147930   6.7732180   9.4750320  34.1483040   6.5705110
  10.2401230  33.3421110   7.5984050  11.2562460  36.0218800   8.1573900
  10.9275820  35.2070560   7.7775630  12.2044760  35.9788610   8.0339590
  13.7097070  51.7930840   5.1311470  13.2500040  52.5446650   4.7569490
  13.0809530  51.0737310   5.0726270   4.1392790  50.1019080   4.3059600
   4.6557810  49.4906440   3.7807860   4.7890170  50.6047860   4.7970610
   6.8788290  50.9927570   5.1328580   7.1666100  50.7381870   4.2561590
   7.3911510  50.4404930   5.7234150   8.0965300  34.7317770   5.7125090
   7.3137090  35.2063270   5.9921850   7.8028230  33.8272600   5.6038270
  12.6486370  35.4340870   3.7574180  13.0894460  35.3785970   2.9095780
  12.3793960  36.3498880   3.8284360  14.5124940  35.0656110   1.7683000
  14.4513340  34.1217330   1.6214020  15.2916970  35.1736200   2.3136460
  10.4844500  33.8146970   2.4624190  11.0873870  34.3867180   2.9372710
   9.7437490  34.3786410   2.2398090   6.9460650  51.9143670  12.4996780
   7.8727960  51.6787940  12.5432740   6.9311080  52.7415670  12.0182810
   4.1324260  34.5788420  12.2638660   3.8508530  35.0822020  11.4999480
   4.5143960  33.7810170  11.8980790  10.7339720  33.9942000  12.8419130
  10.6205170  34.3136610  13.7370650  11.5509460  34.3954510  12.5456410
  13.5138210  51.1413530  12.3237820  14.3063530  50.6462760  12.1163780
  13.8071360  51.8203670  12.9313430   9.6397870  23.2390980  58.3027830
   9.5591920  22.3245590  58.0319540   9.2262290  23.7358050  57.5967540
   7.7715910  25.0170000  60.1837100   6.9958010  24.5370440  60.4735670
   8.4228840  24.3375650  60.0093260  11.7923340  29.4230190  58.9636230
  11.3304870  28.6517430  59.2923400  12.6048890  29.4496260  59.4688680
   1.7683000  29.3629900  61.2570880   2.0711040  28.4727640  61.0781100
   2.5126590  29.9200120  61.0293130   8.0186650  31.7088200  58.5840220
   7.3998090  32.1645700  58.0134660   8.8738430  31.8639660  58.1829920
   7.2124900  27.6927190  60.1907260   7.1433180  26.7517130  60.0296390
   7.9744760  27.7828600  60.7629830   8.2430070  20.4997570  60.4176190
   8.6194890  19.6269450  60.3049860   8.1449580  20.8356270  59.5266630
   2.3735080  18.8723200  55.8793630   2.4801830  19.7726930  56.1862390
   1.4627440  18.8241170  55.5888280  12.0254190  17.9948010  57.3504530
  12.8463810  17.5044580  57.3930010  12.0588270  18.5845670  58.1036370
   4.2142810  21.8409570  60.2118810   4.7221030  22.3390540  60.8523830
   4.7456050  21.0644770  60.0358170   8.8850000  26.5927440  55.9772130
   8.2667270  27.0576890  55.4134850   9.3973250  27.2854920  56.3941640
  12.2615670  19.9348390  60.1232070  11.5571240  20.2233280  60.7035180
  12.6227830  20.7448500  59.7631630  15.3302590  19.3803180  60.5141280
  14.3827500  19.4142160  60.6456710  15.6552580  20.1942130  60.8990640
   5.8622130  15.6800360  58.8097270   6.1697110  15.1247250  58.0932770
   4.9322830  15.8144820  58.6270260  11.4137190  31.3967650  61.1004730
  11.4264350  30.9929940  60.2326990  10.8612410  32.1714940  60.9966160
  12.7082610  28.1183870  56.1894900  12.5978940  27.1758200  56.3144320
  12.7050860  28.4799510  57.0757660   8.2502890  23.7449190  55.5457390
   7.3232170  23.6786570  55.7745860   8.4027710  24.6829320  55.4312630
   8.2371970  20.0166190  52.5424550   7.2975640  20.1780150  52.6277010
   8.5555230  20.7351870  51.9960540  12.2800180  25.3069490  56.0492640
  11.6612600  24.9689040  55.4018940  12.2624630  24.6629250  56.7571830
   3.8559530  24.2713930  58.3277120   3.4516530  23.5591180  57.8323020
   3.9422650  23.9267170  59.2165160   4.3241230  27.9581490  60.4916330
   4.0269520  27.3526960  59.8124110   5.2741050  27.9958800  60.3805690
  10.4564880  24.5456300  53.0565390  10.8958160  23.7078730  52.9103210
  11.1693300  25.1785700  53.1429530   8.5660260  29.4852370  57.0246630
   9.0056170  30.2276700  56.6102020   8.5047150  29.7278940  57.9485590
  14.0382020  15.7999110  51.3706430  13.7254680  15.8925940  52.2705500
  14.7994490  16.3780140  51.3203860  11.2330440  32.4721490  54.3809640
  11.0731580  32.1824430  55.2791470  11.0677150  31.6961620  53.8454870
   3.7118820  32.2520020  56.1581260   3.5361300  31.3355560  55.9449060
   2.8574560  32.6107310  56.3979060  10.9356570  29.9809050  52.9407640
  10.2421730  29.9786340  52.2809920  11.6779430  29.5568370  52.5101810
  10.5006500  31.6071760  57.0156130  10.9563450  30.8261140  57.3294750
  10.8399020  32.3178580  57.5597310   3.0227820  16.5093980  59.2107440
   2.5795970  17.2903520  58.8791960   3.5812810  16.8323870  59.9178380
   6.1386640  16.1304680  54.0913270   5.5140820  16.1264550  54.8166580
   6.0516760  15.2635640  53.6949240   5.0603720  17.0541310  61.0697040
   5.3576050  17.9604140  60.9889060   5.6089280  16.5660090  60.4556610
   2.8142040  21.6327550  56.9388690   2.5882960  21.4164720  57.8435310
   2.0334570  22.0656010  56.5934660  10.0439800  21.6390920  55.5379340
   9.4448690  22.3626720  55.3542960  10.5919410  21.5767700  54.7555790
   8.6504670  20.2754460  57.5682620   9.0434240  20.5926660  56.7551310
   9.0121520  19.3966340  57.6827140   5.6737200  19.5414410  60.0685890
   5.6773260  19.1004360  59.2190430   6.5688320  19.8631740  60.1757710
   5.7357350  20.5426490  53.0592650   5.8570170  20.5012970  54.0078470
   5.3505860  21.4050640  52.9039380   9.6985720  18.3193890  61.0756340
   9.7158460  18.7702540  61.9198190   9.4501300  17.4199530  61.2889780
   4.7478850  22.8527630  52.4575950   4.1795750  22.4045880  51.8311860
   5.4567850  23.2120410  51.9241100   2.2926330  26.8485820  54.7302360
   1.5188590  26.3083440  54.5701080   3.0220960  26.3292430  54.3920120
  13.0514310  25.8451180  60.5228750  13.7713430  26.3406470  60.1324860
  12.8496130  25.1669070  59.8782620   8.5124250  17.2389140  54.6658140
   7.6988860  16.7402310  54.5903450   8.3186200  18.0787390  54.2494490
  11.2272640  21.6108790  52.9620300  12.1152260  21.9226020  52.7871640
  11.1977730  20.7381040  52.5700880   2.3363730  26.5166200  58.3681170
   2.8542400  25.7134460  58.3138060   1.8847750  26.4545340  59.2098000
   7.2233230  27.7832480  53.6408470   7.5648930  28.5274710  53.1451790
   6.3945940  28.0963600  54.0033300  13.4986910  22.9220630  52.4300160
  13.4150630  23.3534850  51.5796600  14.2181100  23.3818980  52.8626980
  14.5274160  29.7762890  55.1582290  13.8850320  29.1218510  55.4326010
  14.1404820  30.1817980  54.3822960  10.1060640  27.1048320  59.0053980
  10.4584460  26.5076450  58.3455350   9.2222970  26.7792550  59.1762230
   6.1923920  27.8646010  56.4124390   6.8795050  28.4115220  56.7931980
   5.4056340  28.4086740  56.4474000   5.4951130  24.8692040  56.0249750
   5.9513910  25.6797290  56.2509940   5.1439340  24.5515180  56.8568240
  12.9171540  28.6679350  51.6958640  12.6909120  27.9509790  52.2883280
  12.5267740  28.4191790  50.8580390  12.4987790  26.5851290  53.3572800
  12.2109490  27.0463980  54.1450680  13.2939960  26.1249060  53.6257020
   4.7156190  30.0777410  53.2876770   4.7066290  30.8107100  52.6721280
   3.7954550  29.8308990  53.3803730  13.2557650  18.4200060  54.5167980
  12.6270810  18.5245730  53.8026210  12.7609570  18.6396840  55.3061860
   7.7015790  30.1405650  51.9501960   7.8027770  29.9369640  51.0203940
   6.8017530  29.8863930  52.1549740   5.2241680  20.6986010  55.9325860
   4.5157830  21.1672350  56.3739470   5.5086160  20.0408020  56.5671050
   9.2557110  17.4236670  57.3721650   9.1324890  17.4422800  56.4231160
  10.2041670  17.4715610  57.4920050   6.3433900  32.6591970  56.6449630
   6.5975400  32.6213360  55.7229000   5.3946380  32.5325300  56.6377880
   3.4276700  19.0071090  53.3076570   4.2767230  19.4441240  53.2416760
   3.0607970  19.3191350  54.1348630  12.3486480  23.5783850  58.2208140
  11.4076620  23.5934080  58.3955830  12.6630550  22.7919810  58.6668440
   2.3268120  25.2603450  51.7812100   3.0931390  25.1484810  52.3437530
   2.4042810  24.5641420  51.1288870  14.3512060  30.7492700  59.8962400
  14.4759480  31.5723870  60.3686210  15.2177620  30.5383430  59.5486550
   1.8229590  32.8423910  59.5679530   2.5592070  32.2939370  59.8388100
   2.2070510  33.7079920  59.4285520   4.9331900  32.0154220  51.3905100
   5.7260510  32.3043050  50.9386890   4.4136250  31.5846390  50.7117580
  13.9862070  31.2424350  52.8141840  13.7003580  30.8289490  51.9996020
  13.7881620  32.1712060  52.6942360   5.4509300  27.2357630  51.2547450
   5.3459940  26.6209980  51.9808830   5.2833520  26.7123520  50.4710460
   8.6912030  26.2977660  51.8589440   8.1422130  26.7446960  52.5032180
   9.3131290  25.7926910  52.3827110   4.3587150  25.2568580  53.7554740
   4.7803570  25.0908450  54.5986130   4.4837990  24.4468810  53.2609880
   6.8714790  24.2806190  51.0031840   7.3920450  23.5655210  50.6372990
   7.5183190  24.9192060  51.3032350   3.2546050  21.3301810  50.7012900
   3.0535110  20.4669170  51.0626240   3.0838100  21.2435170  49.7634500
  10.7334360  16.1410040  53.2299780  11.0136650  15.2977940  53.5859200
   9.9600090  16.3733150  53.7438530   2.0528850  18.4302430  50.6890780
   2.3554750  18.4369860  49.7809930   2.7923440  18.0800290  51.1858440
   5.2713780  17.3737050  51.6746980   4.9235780  16.6961040  51.0949430
   5.4726550  16.9126560  52.4890370   7.4362820  32.3617800  53.2933580
   8.3313610  32.7002770  53.3152340   7.4680450  31.6397210  52.6657860
   2.8866700  28.8542890  56.6342810   2.5862240  28.7307860  57.5346720
   2.7804190  27.9951480  56.2258540  15.6558620  28.6339290  51.3369490
  14.8251580  28.7015940  51.8076720  15.8330450  29.5243410  51.0336350
  15.1115080  25.3786770  53.8403690  15.8733990  25.9483420  53.9463380
  15.1269450  24.8113970  54.6112000  16.1175050  26.2336870  58.6845620
  16.4883880  25.4504190  58.2781590  16.7576980  26.9225970  58.5062920
  15.1634250  25.6721140  50.9976210  15.4383090  26.5800020  50.8695430
  14.9744990  25.6083670  51.9338200  11.5609860  18.6965990  52.2929840
  11.9794740  18.5096970  51.4526500  11.2545920  17.8445040  52.6032770
  15.0599590  23.6090130  55.9905640  14.6843190  22.8418060  55.5586930
  14.3302710  23.9912830  56.4780570  14.3350550  21.8347620  59.2912880
  14.8588030  21.3410270  58.6603050  14.9209970  21.9697980  60.0360450
  13.8250520  21.0920970  55.2305290  14.3209640  20.8591840  56.0154170
  13.6266590  20.2532810  54.8142930  15.2537680  19.7281920  57.7642970
  15.1436960  19.5737960  58.7025240  16.0145270  19.2002860  57.5218380
  16.1427950  17.5589840  51.0049110  17.0677260  17.4271020  50.7967400
  16.1203740  17.6382660  51.9585560  16.2166440  18.3300500  53.6305820
  15.4217940  18.2645620  54.1598730  16.4209720  19.2651140  53.6191170
  13.1584860  32.3692050  57.6244210  13.7543930  32.0476620  56.9478630
  13.4163010  31.8963870  58.4157480  13.7097070  33.0187350  61.4541940
  13.2500040  33.7703160  61.0799960  13.0809530  32.2993820  61.3956740
   4.1392790  31.3275590  60.6290070   4.6557810  30.7162950  60.1038330
   4.7890170  31.8304370  61.1201080  12.6486370  16.6597380  60.0804650
  13.0894460  16.6042480  59.2326250  12.3793960  17.5755390  60.1514830
  14.5124940  16.2912620  58.0913470  14.4513340  15.3473840  57.9444490
  15.2916970  16.3992710  58.6366930   5.9819520  18.3761030  57.5471590
   5.1694030  18.0017920  57.2067470   6.4861160  17.6206110  57.8492780
  10.4844500  15.0403480  58.7854660  11.0873870  15.6123690  59.2603180
   9.7437490  15.6042920  58.5628560  13.6279100  15.4425040  54.0594940
  13.8229730  16.3408490  54.3262370  12.8408970  15.2112120  54.5527890
   1.8130860  16.7885810  53.0971250   2.3423620  16.0015610  52.9679200
   2.4459180  17.4677000  53.3306780   4.0068700  16.5260950  56.1516640
   3.3771440  15.8248260  56.3186770   3.4673840  17.2865080  55.9349800
  15.1805710  32.6825750  55.8201500  15.3557900  31.9963490  55.1762420
  14.4827280  33.2072800  55.4278170   3.0233360  33.0720590  53.3736810
   3.7552180  32.7879870  52.8260700   3.2827030  32.8333870  54.2636190
   2.1848150  29.1885320  53.3783140   1.5557030  29.6570420  53.9268970
   2.2995980  28.3434540  53.8129330   9.6397870  23.2390980  39.5284340
   9.5591920  22.3245590  39.2576050   9.2262290  23.7358050  38.8224050
   7.7715910  25.0170000  41.4093610   6.9958010  24.5370440  41.6992180
   8.4228840  24.3375650  41.2349770   1.7683000  29.3629900  42.4827390
   2.0711040  28.4727640  42.3037610   2.5126590  29.9200120  42.2549640
   8.0186650  31.7088200  39.8096730   7.3998090  32.1645700  39.2391170
   8.8738430  31.8639660  39.4086430   7.2124900  27.6927190  41.4163770
   7.1433180  26.7517130  41.2552900   7.9744760  27.7828600  41.9886340
   8.2430070  20.4997570  41.6432700   8.6194890  19.6269450  41.5306370
   8.1449580  20.8356270  40.7523140   2.3735080  18.8723200  37.1050140
   2.4801830  19.7726930  37.4118900   1.4627440  18.8241170  36.8144790
  12.0254190  17.9948010  38.5761040  12.8463810  17.5044580  38.6186520
  12.0588270  18.5845670  39.3292880   4.2142810  21.8409570  41.4375320
   4.7221030  22.3390540  42.0780340   4.7456050  21.0644770  41.2614680
   2.4978910  16.4808130  45.7038740   2.4997350  16.9980520  44.8984640
   1.6683220  16.0038310  45.6808670   8.8850000  26.5927440  37.2028640
   8.2667270  27.0576890  36.6391360   9.3973250  27.2854920  37.6198150
   3.7481760  26.1203310  43.8812240   3.4151140  26.7472230  44.5233310
   3.9248440  26.6465190  43.1013910  12.2615670  19.9348390  41.3488580
  11.5571240  20.2233280  41.9291690  12.6227830  20.7448500  40.9888140
   2.1794240  18.1918090  43.7109190   2.5211050  19.0360140  43.4163060
   1.2410050  18.3401830  43.8274530   2.9600860  28.0884110  45.6961420
   3.5774860  28.7635190  45.4145870   2.0993980  28.4972090  45.6048920
  15.3302590  19.3803180  41.7397790  14.3827500  19.4142160  41.8713220
  15.6552580  20.1942130  42.1247150   5.8622130  15.6800360  40.0353780
   6.1697110  15.1247250  39.3189280   4.9322830  15.8144820  39.8526770
  10.8122630  26.2997490  43.6543850  11.2291420  26.0857600  42.8197310
  11.5362450  26.5570280  44.2252470   8.2502890  23.7449190  36.7713900
   7.3232170  23.6786570  37.0002370   8.4027710  24.6829320  36.6569140
   8.2371970  20.0166190  33.7681060   7.2975640  20.1780150  33.8533520
   8.5555230  20.7351870  33.2217050  12.2800180  25.3069490  37.2749150
  11.6612600  24.9689040  36.6275450  12.2624630  24.6629250  37.9828340
  11.7226740  21.4854030  44.6914960  11.3097920  22.3107740  44.9454950
  10.9902690  20.8999070  44.4991320   3.8559530  24.2713930  39.5533630
   3.4516530  23.5591180  39.0579530   3.9422650  23.9267170  40.4421670
   4.3241230  27.9581490  41.7172840   4.0269520  27.3526960  41.0380620
   5.2741050  27.9958800  41.6062200   2.5688150  21.0457140  43.3332670
   3.1202740  21.1552480  42.5585920   3.0831660  21.4194740  44.0487900
   3.4159660  27.6963180  48.3680640   2.5188190  27.9203150  48.6154040
   3.4412530  27.8198120  47.4192040  10.4564880  24.5456300  34.2821900
  10.8958160  23.7078730  34.1359720  11.1693300  25.1785700  34.3686040
   2.2430880  24.5676500  46.9438010   2.1038650  25.4399300  47.3125410
   1.3612240  24.2249310  46.7985950   8.5660260  29.4852370  38.2503140
   9.0056170  30.2276700  37.8358530   8.5047150  29.7278940  39.1742100
   4.0411230  30.5098200  49.1523160   4.0126660  30.9141150  48.2851590
   3.8776200  29.5808560  48.9894760  14.0382020  15.7999110  32.5962940
  13.7254680  15.8925940  33.4962010  14.7994490  16.3780140  32.5460370
  15.9926050  31.2925300  50.4487330  16.4685770  31.7708190  51.1276410
  16.6133210  31.2242790  49.7232830   9.2576040  32.1866150  46.1782150
   9.7720710  32.0974160  46.9804580   8.4145120  32.5325850  46.4710060
   3.7118820  32.2520020  37.3837770   3.5361300  31.3355560  37.1705570
   2.8574560  32.6107310  37.6235570  10.5006500  31.6071760  38.2412640
  10.9563450  30.8261140  38.5551260  10.8399020  32.3178580  38.7853820
   3.0227820  16.5093980  40.4363950   2.5795970  17.2903520  40.1048470
   3.5812810  16.8323870  41.1434890   7.3097630  19.3762500  46.0399270
   6.8477000  19.5845520  46.8519210   6.9075740  18.5621850  45.7369940
  12.3102140  20.5971450  47.1695930  11.4595730  20.2977200  47.4905000
  12.1503930  20.8413460  46.2579750   9.4051850  22.0973200  49.2694720
   9.7305260  21.2636950  48.9296950  10.1932180  22.6201720  49.4173050
   6.1386640  16.1304680  35.3169780   5.5140820  16.1264550  36.0423090
   6.0516760  15.2635640  34.9205750   5.0603720  17.0541310  42.2953550
   5.3576050  17.9604140  42.2145570   5.6089280  16.5660090  41.6813120
   2.8142040  21.6327550  38.1645200   2.5882960  21.4164720  39.0691820
   2.0334570  22.0656010  37.8191170  10.0439800  21.6390920  36.7635850
   9.4448690  22.3626720  36.5799470  10.5919410  21.5767700  35.9812300
   5.2541250  22.5313130  48.8305470   5.1584850  21.5907860  48.6805870
   6.0973230  22.7528200  48.4353540   8.6504670  20.2754460  38.7939130
   9.0434240  20.5926660  37.9807820   9.0121520  19.3966340  38.9083650
   6.9596840  19.0261770  50.0535990   6.2695160  18.8333970  50.6882080
   7.7029140  19.3096410  50.5860290   9.2359810  22.8660210  42.8889910
   8.5040930  23.3747020  43.2380010   8.8384150  22.0490190  42.5878690
   5.6737200  19.5414410  41.2942400   5.6773260  19.1004360  40.4446940
   6.5688320  19.8631740  41.4014220   5.7357350  20.5426490  34.2849160
   5.8570170  20.5012970  35.2334980   5.3505860  21.4050640  34.1295890
   9.6985720  18.3193890  42.3012850   9.7158460  18.7702540  43.1454700
   9.4501300  17.4199530  42.5146290   4.7478850  22.8527630  33.6832460
   4.1795750  22.4045880  33.0568370   5.4567850  23.2120410  33.1497610
  13.1256470  15.7326070  48.1399230  13.4502240  15.0015730  48.6657210
  13.1612980  15.4139710  47.2380220   5.9745170  23.6016190  43.0407810
   6.3415300  23.1274760  43.7869150   5.7850230  24.4757760  43.3816150
   3.7644540  22.6424830  45.3592020   3.4601610  23.5216810  45.5842380
   4.7191000  22.7024620  45.3949460   2.2926330  26.8485820  35.9558870
   1.5188590  26.3083440  35.7957590   3.0220960  26.3292430  35.6176630
   8.5124250  17.2389140  35.8914650   7.6988860  16.7402310  35.8159960
   8.3186200  18.0787390  35.4751000   8.4333110  25.9160240  47.6354260
   8.3670420  24.9955910  47.3811850   7.8038250  26.0135680  48.3498900
  11.2272640  21.6108790  34.1876810  12.1152260  21.9226020  34.0128150
  11.1977730  20.7381040  33.7957390   2.3363730  26.5166200  39.5937680
   2.8542400  25.7134460  39.5394570   1.8847750  26.4545340  40.4354510
   7.2233230  27.7832480  34.8664980   7.5648930  28.5274710  34.3708300
   6.3945940  28.0963600  35.2289810   3.0221390  23.9411810  49.3902930
   2.7221530  24.0868990  48.4930750   3.7932630  23.3817100  49.2976320
   8.3649840  28.7380810  47.3858060   8.3794380  27.8061770  47.1676970
   7.6574940  28.8240570  48.0247830  13.4986910  22.9220630  33.6556670
  13.4150630  23.3534850  32.8053110  14.2181100  23.3818980  34.0883490
  10.1060640  27.1048320  40.2310490  10.4584460  26.5076450  39.5711860
   9.2222970  26.7792550  40.4018740   6.1923920  27.8646010  37.6380900
   6.8795050  28.4115220  38.0188490   5.4056340  28.4086740  37.6730510
   5.4951130  24.8692040  37.2506260   5.9513910  25.6797290  37.4766450
   5.1439340  24.5515180  38.0824750   7.7983740  30.3798380  44.4798560
   8.4425960  30.5857760  45.1571980   8.1613180  29.6186780  44.0269410
   9.0715820  28.3830730  43.1976010   9.7138050  27.6823890  43.3108180
   9.5965170  29.1629170  43.0172900  10.8453440  29.1825630  46.4012070
  11.1809680  29.7692320  47.0789990   9.9253780  29.0518340  46.6309860
   6.6742020  29.2316960  49.5700130   6.3538890  28.5126200  50.1145820
   6.0000380  29.9072030  49.6436190   4.7156190  30.0777410  34.5133280
   4.7066290  30.8107100  33.8977790   3.7954550  29.8308990  34.6060240
   9.8895620  19.4643120  44.9336930  10.2576440  18.6438330  45.2616500
   9.0293820  19.5245010  45.3492580  13.2557650  18.4200060  35.7424490
  12.6270810  18.5245730  35.0282720  12.7609570  18.6396840  36.5318370
   7.7015790  30.1405650  33.1758470   7.8027770  29.9369640  32.2460450
   6.8017530  29.8863930  33.3806250   5.2241680  20.6986010  37.1582370
   4.5157830  21.1672350  37.5995980   5.5086160  20.0408020  37.7927560
   6.8497610  22.1182710  45.1574900   7.3482860  22.5928530  45.8226750
   6.9920560  21.1946230  45.3644930   9.2557110  17.4236670  38.5978160
   9.1324890  17.4422800  37.6487670  10.2041670  17.4715610  38.7176560
   6.3433900  32.6591970  37.8706140   6.5975400  32.6213360  36.9485510
   5.3946380  32.5325300  37.8634390   3.4276700  19.0071090  34.5333080
   4.2767230  19.4441240  34.4673270   3.0607970  19.3191350  35.3605140
  12.3486480  23.5783850  39.4464650  11.4076620  23.5934080  39.6212340
  12.6630550  22.7919810  39.8924950   2.3268120  25.2603450  33.0068610
   3.0931390  25.1484810  33.5694040   2.4042810  24.5641420  32.3545380
   1.8229590  32.8423910  40.7936040   2.5592070  32.2939370  41.0644610
   2.2070510  33.7079920  40.6542030   4.9331900  32.0154220  32.6161610
   5.7260510  32.3043050  32.1643400   4.4136250  31.5846390  31.9374090
   9.6652500  28.1349850  49.9297030   9.0590660  28.1581450  49.1892780
   9.3606610  27.4032890  50.4664280  11.0952870  31.8630140  48.5406440
  12.0474620  31.7788160  48.4906680  10.9481090  32.5271850  49.2140230
   5.4509300  27.2357630  32.4803960   5.3459940  26.6209980  33.2065340
   5.2833520  26.7123520  31.6966970   5.6023620  25.9214430  48.4593190
   4.8369290  26.4899430  48.3747860   5.7839580  25.6290640  47.5661420
   8.6912030  26.2977660  33.0845950   8.1422130  26.7446960  33.7288690
   9.3131290  25.7926910  33.6083620  12.7446970  27.6519760  49.0168210
  13.4856440  27.9895520  48.5135670  11.9819650  27.8211820  48.4637980
   4.3587150  25.2568580  34.9811250   4.7803570  25.0908450  35.8242640
   4.4837990  24.4468810  34.4866390   2.5214570  21.2365130  47.7882230
   1.9911030  20.7456080  47.1605570   3.1902640  21.6649330  47.2540160
   6.8714790  24.2806190  32.2288350   7.3920450  23.5655210  31.8629500
   7.5183190  24.9192060  32.5288860  11.4192630  25.7034590  47.5523420
  11.8333650  25.8579670  48.4013840  10.4843630  25.8289810  47.7149200
  11.8914800  23.0430750  49.5562570  12.4735570  22.2883070  49.4683050
  12.0676570  23.5738190  48.7794050   3.0086870  18.2027500  47.8679520
   2.9143740  17.5848250  47.1430390   2.4284260  18.9293790  47.6409430
   5.7748310  16.7600740  44.9006910   5.3265610  16.7825000  44.0552460
   5.1413510  16.3619760  45.4977210   6.1807860  25.6555070  45.5219350
   6.5995970  26.4987800  45.3495590   5.2616490  25.7927110  45.2926130
   8.5171760  23.3871250  46.9057190   8.6367970  22.7912390  47.6452030
   9.3765760  23.4240940  46.4858490  10.8559660  23.9408440  45.4819700
  10.3294880  24.4651060  44.8784840  11.1991000  24.5735830  46.1129430
   3.2546050  21.3301810  31.9269410   3.0535110  20.4669170  32.2882750
   3.0838100  21.2435170  30.9891010   4.0315280  31.9608080  46.6377080
   3.4936370  32.6854140  46.3185780   4.2849240  31.4838420  45.8474420
   5.2840530  19.9292600  48.1633010   5.8740220  19.6208450  48.8510830
   4.4660770  19.4572350  48.3192910  10.1033960  19.5458410  48.3966030
   9.4149480  18.8839950  48.3316020  10.8239980  19.0996680  48.8414490
  10.7334360  16.1410040  34.4556290  11.0136650  15.2977940  34.8115710
   9.9600090  16.3733150  34.9695040   2.0528850  18.4302430  31.9147290
   2.3554750  18.4369860  31.0066440   2.7923440  18.0800290  32.4114950
   6.8877490  33.1959290  46.8963730   6.8136190  34.0994430  47.2036100
   5.9856330  32.8771190  46.8685800   5.2713780  17.3737050  32.9003490
   4.9235780  16.6961040  32.3205940   5.4726550  16.9126560  33.7146880
   7.4362820  32.3617800  34.5190090   8.3313610  32.7002770  34.5408850
   7.4680450  31.6397210  33.8914370   2.8866700  28.8542890  37.8599320
   2.5862240  28.7307860  38.7603230   2.7804190  27.9951480  37.4515050
  14.4157170  30.8921470  47.2256290  13.8159160  30.9514030  46.4820210
  14.5451070  29.9526450  47.3553140  11.5609860  18.6965990  33.5186350
  11.9794740  18.5096970  32.6783010  11.2545920  17.8445040  33.8289280
  12.8887280  17.9818080  49.6281370  13.7657460  17.9901480  50.0115370
  12.9008120  17.2448920  49.0173720  13.8250520  21.0920970  36.4561800
  14.3209640  20.8591840  37.2410680  13.6266590  20.2532810  36.0399440
  15.2537680  19.7281920  38.9899480  15.1436960  19.5737960  39.9281750
  16.0145270  19.2002860  38.7474890  13.6003400  15.6676050  45.4482480
  14.2375620  16.2810190  45.8141670  13.7478290  15.7036710  44.5031710
  16.1427950  17.5589840  32.2305620  17.0677260  17.4271020  32.0223910
  16.1203740  17.6382660  33.1842070  16.2166440  18.3300500  34.8562330
  15.4217940  18.2645620  35.3855240  16.4209720  19.2651140  34.8447680
   4.7653460  30.3569550  44.6001070   4.5244820  30.6244110  43.7131590
   5.7056100  30.5275280  44.6551930   6.9707880  16.8202240  48.3557580
   6.9096770  17.4124070  49.1052990   7.9108260  16.7128200  48.2107840
   9.6082440  16.4772300  47.9949870  10.2222850  16.7951590  47.3330950
  10.1532000  15.9920890  48.6145730  10.3490480  15.0404440  44.3219160
   9.4750320  15.3739550  44.1192090  10.2401230  14.5677620  45.1471030
  11.2562460  17.2475310  45.7060880  10.9275820  16.4327070  45.3262610
  12.2044760  17.2045120  45.5826570   4.1392790  31.3275590  41.8546580
   4.6557810  30.7162950  41.3294840   4.7890170  31.8304370  42.3457590
   6.8788290  32.2184080  42.6815560   7.1666100  31.9638380  41.8048570
   7.3911510  31.6661440  43.2721130   8.0965300  15.9574280  43.2612070
   7.3137090  16.4319780  43.5408830   7.8028230  15.0529110  43.1525250
  12.6486370  16.6597380  41.3061160  13.0894460  16.6042480  40.4582760
  12.3793960  17.5755390  41.3771340  14.5124940  16.2912620  39.3169980
  14.4513340  15.3473840  39.1701000  15.2916970  16.3992710  39.8623440
   5.9819520  18.3761030  38.7728100   5.1694030  18.0017920  38.4323980
   6.4861160  17.6206110  39.0749290  10.4844500  15.0403480  40.0111170
  11.0873870  15.6123690  40.4859690   9.7437490  15.6042920  39.7885070
  13.6279100  15.4425040  35.2851450  13.8229730  16.3408490  35.5518880
  12.8408970  15.2112120  35.7784400   1.8130860  16.7885810  34.3227760
   2.3423620  16.0015610  34.1935710   2.4459180  17.4677000  34.5563290
   4.0068700  16.5260950  37.3773150   3.3771440  15.8248260  37.5443280
   3.4673840  17.2865080  37.1606310   6.9460650  33.1400180  50.0483760
   7.8727960  32.9044450  50.0919720   6.9311080  33.9672180  49.5669790
   4.1324260  15.8044930  49.8125640   3.8508530  16.3078530  49.0486460
   4.5143960  15.0066680  49.4467770   3.0233360  33.0720590  34.5993320
   3.7552180  32.7879870  34.0517210   3.2827030  32.8333870  35.4892700
   2.1848150  29.1885320  34.6039650   1.5557030  29.6570420  35.1525480
   2.2995980  28.3434540  35.0385840  10.7339720  15.2198510  50.3906110
  10.6205170  15.5393120  51.2857630  11.5509460  15.6211020  50.0943390
  13.5138210  32.3670040  49.8724800  14.3063530  31.8719270  49.6650760
  13.8071360  33.0460180  50.4800410   9.6397870  23.2390980  20.7540850
   9.5591920  22.3245590  20.4832560   9.2262290  23.7358050  20.0480560
   7.7715910  25.0170000  22.6350120   6.9958010  24.5370440  22.9248690
   8.4228840  24.3375650  22.4606280  11.7923340  29.4230190  21.4149250
  11.3304870  28.6517430  21.7436420  12.6048890  29.4496260  21.9201700
   1.7683000  29.3629900  23.7083900   2.0711040  28.4727640  23.5294120
   2.5126590  29.9200120  23.4806150   8.0186650  31.7088200  21.0353240
   7.3998090  32.1645700  20.4647680   8.8738430  31.8639660  20.6342940
   7.2124900  27.6927190  22.6420280   7.1433180  26.7517130  22.4809410
   7.9744760  27.7828600  23.2142850   8.2430070  20.4997570  22.8689210
   8.6194890  19.6269450  22.7562880   8.1449580  20.8356270  21.9779650
   2.3735080  18.8723200  18.3306650   2.4801830  19.7726930  18.6375410
   1.4627440  18.8241170  18.0401300  12.0254190  17.9948010  19.8017550
  12.8463810  17.5044580  19.8443030  12.0588270  18.5845670  20.5549390
   4.2142810  21.8409570  22.6631830   4.7221030  22.3390540  23.3036850
   4.7456050  21.0644770  22.4871190  16.3153740  20.0114760  26.3661180
  15.6105910  20.3996470  25.8476290  16.5811660  20.7065050  26.9682110
   2.4978910  16.4808130  26.9295250   2.4997350  16.9980520  26.1241150
   1.6683220  16.0038310  26.9065180   8.8850000  26.5927440  18.4285150
   8.2667270  27.0576890  17.8647870   9.3973250  27.2854920  18.8454660
   3.7481760  26.1203310  25.1068750   3.4151140  26.7472230  25.7489820
   3.9248440  26.6465190  24.3270420  12.2615670  19.9348390  22.5745090
  11.5571240  20.2233280  23.1548200  12.6227830  20.7448500  22.2144650
   2.1794240  18.1918090  24.9365700   2.5211050  19.0360140  24.6419570
   1.2410050  18.3401830  25.0531040   2.9600860  28.0884110  26.9217930
   3.5774860  28.7635190  26.6402380   2.0993980  28.4972090  26.8305430
  15.3302590  19.3803180  22.9654300  14.3827500  19.4142160  23.0969730
  15.6552580  20.1942130  23.3503660   5.8622130  15.6800360  21.2610290
   6.1697110  15.1247250  20.5445790   4.9322830  15.8144820  21.0783280
  11.4137190  31.3967650  23.5517750  11.4264350  30.9929940  22.6840010
  10.8612410  32.1714940  23.4479180  12.7082610  28.1183870  18.6407920
  12.5978940  27.1758200  18.7657340  12.7050860  28.4799510  19.5270680
  10.8122630  26.2997490  24.8800360  11.2291420  26.0857600  24.0453820
  11.5362450  26.5570280  25.4508980   8.2502890  23.7449190  17.9970410
   7.3232170  23.6786570  18.2258880   8.4027710  24.6829320  17.8825650
   8.2371970  20.0166190  14.9937570   7.2975640  20.1780150  15.0790030
   8.5555230  20.7351870  14.4473560  14.7584730  24.6984710  24.9716600
  13.9303360  24.7677800  24.4966730  15.3535210  25.2839020  24.5032430
  12.2800180  25.3069490  18.5005660  11.6612600  24.9689040  17.8531960
  12.2624630  24.6629250  19.2084850  11.7226740  21.4854030  25.9171470
  11.3097920  22.3107740  26.1711460  10.9902690  20.8999070  25.7247830
   3.8559530  24.2713930  20.7790140   3.4516530  23.5591180  20.2836040
   3.9422650  23.9267170  21.6678180   4.3241230  27.9581490  22.9429350
   4.0269520  27.3526960  22.2637130   5.2741050  27.9958800  22.8318710
   2.5688150  21.0457140  24.5589180   3.1202740  21.1552480  23.7842430
   3.0831660  21.4194740  25.2744410   3.4159660  27.6963180  29.5937150
   2.5188190  27.9203150  29.8410550   3.4412530  27.8198120  28.6448550
  10.4564880  24.5456300  15.5078410  10.8958160  23.7078730  15.3616230
  11.1693300  25.1785700  15.5942550   2.2430880  24.5676500  28.1694520
   2.1038650  25.4399300  28.5381920   1.3612240  24.2249310  28.0242460
   8.5660260  29.4852370  19.4759650   9.0056170  30.2276700  19.0615040
   8.5047150  29.7278940  20.3998610   4.0411230  30.5098200  30.3779670
   4.0126660  30.9141150  29.5108100   3.8776200  29.5808560  30.2151270
  14.0382020  15.7999110  13.8219450  13.7254680  15.8925940  14.7218520
  14.7994490  16.3780140  13.7716880   9.2576040  32.1866150  27.4038660
   9.7720710  32.0974160  28.2061090   8.4145120  32.5325850  27.6966570
  11.2330440  32.4721490  16.8322660  11.0731580  32.1824430  17.7304490
  11.0677150  31.6961620  16.2967890   3.7118820  32.2520020  18.6094280
   3.5361300  31.3355560  18.3962080   2.8574560  32.6107310  18.8492080
  10.9356570  29.9809050  15.3920660  10.2421730  29.9786340  14.7322940
  11.6779430  29.5568370  14.9614830  10.5006500  31.6071760  19.4669150
  10.9563450  30.8261140  19.7807770  10.8399020  32.3178580  20.0110330
  15.2483310  20.5370610  29.7993590  14.6327580  21.0450280  29.2709050
  14.9279730  19.6368940  29.7419530   3.0227820  16.5093980  21.6620460
   2.5795970  17.2903520  21.3304980   3.5812810  16.8323870  22.3691400
   7.3097630  19.3762500  27.2655780   6.8477000  19.5845520  28.0775720
   6.9075740  18.5621850  26.9626450  12.3102140  20.5971450  28.3952440
  11.4595730  20.2977200  28.7161510  12.1503930  20.8413460  27.4836260
   9.4051850  22.0973200  30.4951230   9.7305260  21.2636950  30.1553460
  10.1932180  22.6201720  30.6429560   6.1386640  16.1304680  16.5426290
   5.5140820  16.1264550  17.2679600   6.0516760  15.2635640  16.1462260
   5.0603720  17.0541310  23.5210060   5.3576050  17.9604140  23.4402080
   5.6089280  16.5660090  22.9069630   2.8142040  21.6327550  19.3901710
   2.5882960  21.4164720  20.2948330   2.0334570  22.0656010  19.0447680
  10.0439800  21.6390920  17.9892360   9.4448690  22.3626720  17.8055980
  10.5919410  21.5767700  17.2068810   5.2541250  22.5313130  30.0561980
   5.1584850  21.5907860  29.9062380   6.0973230  22.7528200  29.6610050
   8.6504670  20.2754460  20.0195640   9.0434240  20.5926660  19.2064330
   9.0121520  19.3966340  20.1340160   6.9596840  19.0261770  31.2792500
   6.2695160  18.8333970  31.9138590   7.7029140  19.3096410  31.8116800
   9.2359810  22.8660210  24.1146420   8.5040930  23.3747020  24.4636520
   8.8384150  22.0490190  23.8135200   5.6737200  19.5414410  22.5198910
   5.6773260  19.1004360  21.6703450   6.5688320  19.8631740  22.6270730
   5.7357350  20.5426490  15.5105670   5.8570170  20.5012970  16.4591490
   5.3505860  21.4050640  15.3552400   9.6985720  18.3193890  23.5269360
   9.7158460  18.7702540  24.3711210   9.4501300  17.4199530  23.7402800
   4.7478850  22.8527630  14.9088970   4.1795750  22.4045880  14.2824880
   5.4567850  23.2120410  14.3754120  13.1256470  15.7326070  29.3655740
  13.4502240  15.0015730  29.8913720  13.1612980  15.4139710  28.4636730
   5.9745170  23.6016190  24.2664320   6.3415300  23.1274760  25.0125660
   5.7850230  24.4757760  24.6072660   3.7644540  22.6424830  26.5848530
   3.4601610  23.5216810  26.8098890   4.7191000  22.7024620  26.6205970
   2.2926330  26.8485820  17.1815380   1.5188590  26.3083440  17.0214100
   3.0220960  26.3292430  16.8433140  13.0514310  25.8451180  22.9741770
  13.7713430  26.3406470  22.5837880  12.8496130  25.1669070  22.3295640
   8.5124250  17.2389140  17.1171160   7.6988860  16.7402310  17.0416470
   8.3186200  18.0787390  16.7007510   8.4333110  25.9160240  28.8610770
   8.3670420  24.9955910  28.6068360   7.8038250  26.0135680  29.5755410
  11.2272640  21.6108790  15.4133320  12.1152260  21.9226020  15.2384660
  11.1977730  20.7381040  15.0213900   2.3363730  26.5166200  20.8194190
   2.8542400  25.7134460  20.7651080   1.8847750  26.4545340  21.6611020
   7.2233230  27.7832480  16.0921490   7.5648930  28.5274710  15.5964810
   6.3945940  28.0963600  16.4546320   3.0221390  23.9411810  30.6159440
   2.7221530  24.0868990  29.7187260   3.7932630  23.3817100  30.5232830
   8.3649840  28.7380810  28.6114570   8.3794380  27.8061770  28.3933480
   7.6574940  28.8240570  29.2504340  13.4986910  22.9220630  14.8813180
  13.4150630  23.3534850  14.0309620  14.2181100  23.3818980  15.3140000
  14.5761050  25.3788150  27.9583150  13.8509240  25.9716930  27.7612540
  15.1036510  25.3711690  27.1596520  14.5274160  29.7762890  17.6095310
  13.8850320  29.1218510  17.8839030  14.1404820  30.1817980  16.8335980
  10.1060640  27.1048320  21.4567000  10.4584460  26.5076450  20.7968370
   9.2222970  26.7792550  21.6275250   6.1923920  27.8646010  18.8637410
   6.8795050  28.4115220  19.2445000   5.4056340  28.4086740  18.8987020
   5.4951130  24.8692040  18.4762770   5.9513910  25.6797290  18.7022960
   5.1439340  24.5515180  19.3081260   7.7983740  30.3798380  25.7055070
   8.4425960  30.5857760  26.3828490   8.1613180  29.6186780  25.2525920
   9.0715820  28.3830730  24.4232520   9.7138050  27.6823890  24.5364690
   9.5965170  29.1629170  24.2429410  12.9171540  28.6679350  14.1471660
  12.6909120  27.9509790  14.7396300  12.5267740  28.4191790  13.3093410
  10.8453440  29.1825630  27.6268580  11.1809680  29.7692320  28.3046500
   9.9253780  29.0518340  27.8566370  12.4987790  26.5851290  15.8085820
  12.2109490  27.0463980  16.5963700  13.2939960  26.1249060  16.0770040
   6.6742020  29.2316960  30.7956640   6.3538890  28.5126200  31.3402330
   6.0000380  29.9072030  30.8692700   4.7156190  30.0777410  15.7389790
   4.7066290  30.8107100  15.1234300   3.7954550  29.8308990  15.8316750
   9.8895620  19.4643120  26.1593440  10.2576440  18.6438330  26.4873010
   9.0293820  19.5245010  26.5749090  13.2557650  18.4200060  16.9681000
  12.6270810  18.5245730  16.2539230  12.7609570  18.6396840  17.7574880
   7.7015790  30.1405650  14.4014980   7.8027770  29.9369640  13.4716960
   6.8017530  29.8863930  14.6062760   5.2241680  20.6986010  18.3838880
   4.5157830  21.1672350  18.8252490   5.5086160  20.0408020  19.0184070
   6.8497610  22.1182710  26.3831410   7.3482860  22.5928530  27.0483260
   6.9920560  21.1946230  26.5901440   9.2557110  17.4236670  19.8234670
   9.1324890  17.4422800  18.8744180  10.2041670  17.4715610  19.9433070
   6.3433900  32.6591970  19.0962650   6.5975400  32.6213360  18.1742020
   5.3946380  32.5325300  19.0890900   3.4276700  19.0071090  15.7589590
   4.2767230  19.4441240  15.6929780   3.0607970  19.3191350  16.5861650
  14.0564470  18.3350670  27.2259800  13.5538070  19.0756070  27.5653610
  14.8721130  18.7234670  26.9096590  12.3486480  23.5783850  20.6721160
  11.4076620  23.5934080  20.8468850  12.6630550  22.7919810  21.1181460
   2.3268120  25.2603450  14.2325120   3.0931390  25.1484810  14.7950550
   2.4042810  24.5641420  13.5801890  14.3512060  30.7492700  22.3475420
  14.4759480  31.5723870  22.8199230  15.2177620  30.5383430  21.9999570
   1.8229590  32.8423910  22.0192550   2.5592070  32.2939370  22.2901120
   2.2070510  33.7079920  21.8798540   4.9331900  32.0154220  13.8418120
   5.7260510  32.3043050  13.3899910   4.4136250  31.5846390  13.1630600
   9.6652500  28.1349850  31.1553540   9.0590660  28.1581450  30.4149290
   9.3606610  27.4032890  31.6920790  13.9862070  31.2424350  15.2654860
  13.7003580  30.8289490  14.4509040  13.7881620  32.1712060  15.1455380
   5.4509300  27.2357630  13.7060470   5.3459940  26.6209980  14.4321850
   5.2833520  26.7123520  12.9223480   5.6023620  25.9214430  29.6849700
   4.8369290  26.4899430  29.6004370   5.7839580  25.6290640  28.7917930
   8.6912030  26.2977660  14.3102460   8.1422130  26.7446960  14.9545200
   9.3131290  25.7926910  14.8340130   4.3587150  25.2568580  16.2067760
   4.7803570  25.0908450  17.0499150   4.4837990  24.4468810  15.7122900
   2.5214570  21.2365130  29.0138740   1.9911030  20.7456080  28.3862080
   3.1902640  21.6649330  28.4796670   6.8714790  24.2806190  13.4544860
   7.3920450  23.5655210  13.0886010   7.5183190  24.9192060  13.7545370
  11.4192630  25.7034590  28.7779930  11.8333650  25.8579670  29.6270350
  10.4843630  25.8289810  28.9405710  11.8914800  23.0430750  30.7819080
  12.4735570  22.2883070  30.6939560  12.0676570  23.5738190  30.0050560
   3.0086870  18.2027500  29.0936030   2.9143740  17.5848250  28.3686900
   2.4284260  18.9293790  28.8665940   5.7748310  16.7600740  26.1263420
   5.3265610  16.7825000  25.2808970   5.1413510  16.3619760  26.7233720
   6.1807860  25.6555070  26.7475860   6.5995970  26.4987800  26.5752100
   5.2616490  25.7927110  26.5182640   8.5171760  23.3871250  28.1313700
   8.6367970  22.7912390  28.8708540   9.3765760  23.4240940  27.7115000
  10.8559660  23.9408440  26.7076210  10.3294880  24.4651060  26.1041350
  11.1991000  24.5735830  27.3385940   3.2546050  21.3301810  13.1525920
   3.0535110  20.4669170  13.5139260   3.0838100  21.2435170  12.2147520
   4.0315280  31.9608080  27.8633590   3.4936370  32.6854140  27.5442290
   4.2849240  31.4838420  27.0730930   5.2840530  19.9292600  29.3889520
   5.8740220  19.6208450  30.0767340   4.4660770  19.4572350  29.5449420
  10.1033960  19.5458410  29.6222540   9.4149480  18.8839950  29.5572530
  10.8239980  19.0996680  30.0671000  10.7334360  16.1410040  15.6812800
  11.0136650  15.2977940  16.0372220   9.9600090  16.3733150  16.1951550
   2.0528850  18.4302430  13.1403800   2.3554750  18.4369860  12.2322950
   2.7923440  18.0800290  13.6371460   6.8877490  33.1959290  28.1220240
   6.8136190  34.0994430  28.4292610   5.9856330  32.8771190  28.0942310
   5.2713780  17.3737050  14.1260000   4.9235780  16.6961040  13.5462450
   5.4726550  16.9126560  14.9403390   7.4362820  32.3617800  15.7446600
   8.3313610  32.7002770  15.7665360   7.4680450  31.6397210  15.1170880
   2.8866700  28.8542890  19.0855830   2.5862240  28.7307860  19.9859740
   2.7804190  27.9951480  18.6771560  15.6558620  28.6339290  13.7882510
  14.8251580  28.7015940  14.2589740  15.8330450  29.5243410  13.4849370
  15.1115080  25.3786770  16.2916710  15.8733990  25.9483420  16.3976400
  15.1269450  24.8113970  17.0625020  16.1175050  26.2336870  21.1358640
  16.4883880  25.4504190  20.7294610  16.7576980  26.9225970  20.9575940
  13.1008810  27.6173450  26.5488960  12.2868650  28.0470610  26.8114750
  13.5083010  28.2291860  25.9358010  15.1634250  25.6721140  13.4489230
  15.4383090  26.5800020  13.3208450  14.9744990  25.6083670  14.3851220
  11.5609860  18.6965990  14.7442860  11.9794740  18.5096970  13.9039520
  11.2545920  17.8445040  15.0545790  15.0599590  23.6090130  18.4418660
  14.6843190  22.8418060  18.0099950  14.3302710  23.9912830  18.9293590
  14.4499210  22.7561650  28.0758180  14.2185300  22.5274400  27.1756130
  14.7103760  23.6761200  28.0303070  12.8887280  17.9818080  30.8537880
  13.7657460  17.9901480  31.2371880  12.9008120  17.2448920  30.2430230
  14.3350550  21.8347620  21.7425900  14.8588030  21.3410270  21.1116070
  14.9209970  21.9697980  22.4873470  14.5140270  21.9187490  25.2645450
  13.5642980  21.8851030  25.3790440  14.6953280  22.8287600  25.0295220
  13.8250520  21.0920970  17.6818310  14.3209640  20.8591840  18.4667190
  13.6266590  20.2532810  17.2655950  15.2537680  19.7281920  20.2155990
  15.1436960  19.5737960  21.1538260  16.0145270  19.2002860  19.9731400
  13.6003400  15.6676050  26.6738990  14.2375620  16.2810190  27.0398180
  13.7478290  15.7036710  25.7288220  16.1427950  17.5589840  13.4562130
  17.0677260  17.4271020  13.2480420  16.1203740  17.6382660  14.4098580
  16.2166440  18.3300500  16.0818840  15.4217940  18.2645620  16.6111750
  16.4209720  19.2651140  16.0704190  13.1584860  32.3692050  20.0757230
  13.7543930  32.0476620  19.3991650  13.4163010  31.8963870  20.8670500
   4.7653460  30.3569550  25.8257580   4.5244820  30.6244110  24.9388100
   5.7056100  30.5275280  25.8808440   6.9707880  16.8202240  29.5814090
   6.9096770  17.4124070  30.3309500   7.9108260  16.7128200  29.4364350
   9.6082440  16.4772300  29.2206380  10.2222850  16.7951590  28.5587460
  10.1532000  15.9920890  29.8402240  10.3490480  15.0404440  25.5475670
   9.4750320  15.3739550  25.3448600  10.2401230  14.5677620  26.3727540
  11.2562460  17.2475310  26.9317390  10.9275820  16.4327070  26.5519120
  12.2044760  17.2045120  26.8083080  13.7097070  33.0187350  23.9054960
  13.2500040  33.7703160  23.5312980  13.0809530  32.2993820  23.8469760
   4.1392790  31.3275590  23.0803090   4.6557810  30.7162950  22.5551350
   4.7890170  31.8304370  23.5714100   6.8788290  32.2184080  23.9072070
   7.1666100  31.9638380  23.0305080   7.3911510  31.6661440  24.4977640
   8.0965300  15.9574280  24.4868580   7.3137090  16.4319780  24.7665340
   7.8028230  15.0529110  24.3781760  12.6486370  16.6597380  22.5317670
  13.0894460  16.6042480  21.6839270  12.3793960  17.5755390  22.6027850
  14.5124940  16.2912620  20.5426490  14.4513340  15.3473840  20.3957510
  15.2916970  16.3992710  21.0879950   5.9819520  18.3761030  19.9984610
   5.1694030  18.0017920  19.6580490   6.4861160  17.6206110  20.3005800
  10.4844500  15.0403480  21.2367680  11.0873870  15.6123690  21.7116200
   9.7437490  15.6042920  21.0141580  13.6279100  15.4425040  16.5107960
  13.8229730  16.3408490  16.7775390  12.8408970  15.2112120  17.0040910
   1.8130860  16.7885810  15.5484270   2.3423620  16.0015610  15.4192220
   2.4459180  17.4677000  15.7819800   4.0068700  16.5260950  18.6029660
   3.3771440  15.8248260  18.7699790   3.4673840  17.2865080  18.3862820
   6.9460650  33.1400180  31.2740270   7.8727960  32.9044450  31.3176230
   6.9311080  33.9672180  30.7926300  15.1805710  32.6825750  18.2714520
  15.3557900  31.9963490  17.6275440  14.4827280  33.2072800  17.8791190
   4.1324260  15.8044930  31.0382150   3.8508530  16.3078530  30.2742970
   4.5143960  15.0066680  30.6724280   3.0233360  33.0720590  15.8249830
   3.7552180  32.7879870  15.2773720   3.2827030  32.8333870  16.7149210
   2.1848150  29.1885320  15.8296160   1.5557030  29.6570420  16.3781990
   2.2995980  28.3434540  16.2642350  10.7339720  15.2198510  31.6162620
  10.6205170  15.5393120  32.5114140  11.5509460  15.6211020  31.3199900
   7.7715910  25.0170000   3.8606630   6.9958010  24.5370440   4.1505200
   8.4228840  24.3375650   3.6862790  11.7923340  29.4230190   2.6405760
  11.3304870  28.6517430   2.9692930  12.6048890  29.4496260   3.1458210
   1.7683000  29.3629900   4.9340410   2.0711040  28.4727640   4.7550630
   2.5126590  29.9200120   4.7062660   8.0186650  31.7088200   2.2609750
   7.3998090  32.1645700   1.6904190   8.8738430  31.8639660   1.8599450
   7.2124900  27.6927190   3.8676790   7.1433180  26.7517130   3.7065920
   7.9744760  27.7828600   4.4399360   8.2430070  20.4997570   4.0945720
   8.6194890  19.6269450   3.9819390   8.1449580  20.8356270   3.2036160
   4.2142810  21.8409570   3.8888340   4.7221030  22.3390540   4.5293360
   4.7456050  21.0644770   3.7127700  16.3153740  20.0114760   7.5917690
  15.6105910  20.3996470   7.0732800  16.5811660  20.7065050   8.1938620
   2.4978910  16.4808130   8.1551760   2.4997350  16.9980520   7.3497660
   1.6683220  16.0038310   8.1321690   3.7481760  26.1203310   6.3325260
   3.4151140  26.7472230   6.9746330   3.9248440  26.6465190   5.5526930
  12.2615670  19.9348390   3.8001600  11.5571240  20.2233280   4.3804710
  12.6227830  20.7448500   3.4401160   2.1794240  18.1918090   6.1622210
   2.5211050  19.0360140   5.8676080   1.2410050  18.3401830   6.2787550
   2.9600860  28.0884110   8.1474440   3.5774860  28.7635190   7.8658890
   2.0993980  28.4972090   8.0561940  13.8778450  29.5523520   6.0629080
  13.1941970  30.2222630   6.0545750  14.4172740  29.7504170   5.2973940
  15.3302590  19.3803180   4.1910810  14.3827500  19.4142160   4.3226240
  15.6552580  20.1942130   4.5760170   5.8622130  15.6800360   2.4866800
   6.1697110  15.1247250   1.7702300   4.9322830  15.8144820   2.3039790
  11.4137190  31.3967650   4.7774260  11.4264350  30.9929940   3.9096520
  10.8612410  32.1714940   4.6735690  10.8122630  26.2997490   6.1056870
  11.2291420  26.0857600   5.2710330  11.5362450  26.5570280   6.6765490
  14.7584730  24.6984710   6.1973110  13.9303360  24.7677800   5.7223240
  15.3535210  25.2839020   5.7288940  11.7226740  21.4854030   7.1427980
  11.3097920  22.3107740   7.3967970  10.9902690  20.8999070   6.9504340
   4.3241230  27.9581490   4.1685860   4.0269520  27.3526960   3.4893640
   5.2741050  27.9958800   4.0575220   2.5688150  21.0457140   5.7845690
   3.1202740  21.1552480   5.0098940   3.0831660  21.4194740   6.5000920
  12.4126840  31.5313360   7.8308960  11.9357400  32.3385550   7.6381570
  11.7288630  30.8791690   7.9835170   3.4159660  27.6963180  10.8193660
   2.5188190  27.9203150  11.0667060   3.4412530  27.8198120   9.8705060
   2.2430880  24.5676500   9.3951030   2.1038650  25.4399300   9.7638430
   1.3612240  24.2249310   9.2498970   4.0411230  30.5098200  11.6036180
   4.0126660  30.9141150  10.7364610   3.8776200  29.5808560  11.4407780
  15.9926050  31.2925300  12.9000350  16.4685770  31.7708190  13.5789430
  16.6133210  31.2242790  12.1745850  15.3959300  28.4838150  10.0600360
  15.5222360  28.2450030   9.1417540  15.4380680  27.6522690  10.5322440
   9.2576040  32.1866150   8.6295170   9.7720710  32.0974160   9.4317600
   8.4145120  32.5325850   8.9223080  15.2483310  20.5370610  11.0250100
  14.6327580  21.0450280  10.4965560  14.9279730  19.6368940  10.9676040
   3.0227820  16.5093980   2.8876970   2.5795970  17.2903520   2.5561490
   3.5812810  16.8323870   3.5947910   7.3097630  19.3762500   8.4912290
   6.8477000  19.5845520   9.3032230   6.9075740  18.5621850   8.1882960
  12.3102140  20.5971450   9.6208950  11.4595730  20.2977200   9.9418020
  12.1503930  20.8413460   8.7092770   9.4051850  22.0973200  11.7207740
   9.7305260  21.2636950  11.3809970  10.1932180  22.6201720  11.8686070
   5.0603720  17.0541310   4.7466570   5.3576050  17.9604140   4.6658590
   5.6089280  16.5660090   4.1326140   5.2541250  22.5313130  11.2818490
   5.1584850  21.5907860  11.1318890   6.0973230  22.7528200  10.8866560
   6.9596840  19.0261770  12.5049010   6.2695160  18.8333970  13.1395100
   7.7029140  19.3096410  13.0373310   9.2359810  22.8660210   5.3402930
   8.5040930  23.3747020   5.6893030   8.8384150  22.0490190   5.0391710
   5.6737200  19.5414410   3.7455420   5.6773260  19.1004360   2.8959960
   6.5688320  19.8631740   3.8527240   9.6985720  18.3193890   4.7525870
   9.7158460  18.7702540   5.5967720   9.4501300  17.4199530   4.9659310
  13.1256470  15.7326070  10.5912250  13.4502240  15.0015730  11.1170230
  13.1612980  15.4139710   9.6893240   5.9745170  23.6016190   5.4920830
   6.3415300  23.1274760   6.2382170   5.7850230  24.4757760   5.8329170
   3.7644540  22.6424830   7.8105040   3.4601610  23.5216810   8.0355400
   4.7191000  22.7024620   7.8462480  13.0514310  25.8451180   4.1998280
  13.7713430  26.3406470   3.8094390  12.8496130  25.1669070   3.5552150
   8.4333110  25.9160240  10.0867280   8.3670420  24.9955910   9.8324870
   7.8038250  26.0135680  10.8011920   2.3363730  26.5166200   2.0450700
   2.8542400  25.7134460   1.9907590   1.8847750  26.4545340   2.8867530
   3.0221390  23.9411810  11.8415950   2.7221530  24.0868990  10.9443770
   3.7932630  23.3817100  11.7489340   8.3649840  28.7380810   9.8371080
   8.3794380  27.8061770   9.6189990   7.6574940  28.8240570  10.4760850
  14.5761050  25.3788150   9.1839660  13.8509240  25.9716930   8.9869050
  15.1036510  25.3711690   8.3853030  10.1060640  27.1048320   2.6823510
  10.4584460  26.5076450   2.0224880   9.2222970  26.7792550   2.8531760
   7.7983740  30.3798380   6.9311580   8.4425960  30.5857760   7.6085000
   8.1613180  29.6186780   6.4782430   9.0715820  28.3830730   5.6489030
   9.7138050  27.6823890   5.7621200   9.5965170  29.1629170   5.4685920
  10.8453440  29.1825630   8.8525090  11.1809680  29.7692320   9.5303010
   9.9253780  29.0518340   9.0822880   6.6742020  29.2316960  12.0213150
   6.3538890  28.5126200  12.5658840   6.0000380  29.9072030  12.0949210
   9.8895620  19.4643120   7.3849950  10.2576440  18.6438330   7.7129520
   9.0293820  19.5245010   7.8005600   6.8497610  22.1182710   7.6087920
   7.3482860  22.5928530   8.2739770   6.9920560  21.1946230   7.8157950
  14.0564470  18.3350670   8.4516310  13.5538070  19.0756070   8.7910120
  14.8721130  18.7234670   8.1353100  12.3486480  23.5783850   1.8977670
  11.4076620  23.5934080   2.0725360  12.6630550  22.7919810   2.3437970
  14.3512060  30.7492700   3.5731930  14.4759480  31.5723870   4.0455740
  15.2177620  30.5383430   3.2256080   1.8229590  32.8423910   3.2449060
   2.5592070  32.2939370   3.5157630   2.2070510  33.7079920   3.1055050
   9.6652500  28.1349850  12.3810050   9.0590660  28.1581450  11.6405800
   9.3606610  27.4032890  12.9177300  11.0952870  31.8630140  10.9919460
  12.0474620  31.7788160  10.9419700  10.9481090  32.5271850  11.6653250
   5.6023620  25.9214430  10.9106210   4.8369290  26.4899430  10.8260880
   5.7839580  25.6290640  10.0174440  12.7446970  27.6519760  11.4681230
  13.4856440  27.9895520  10.9648690  11.9819650  27.8211820  10.9151000
   2.5214570  21.2365130  10.2395250   1.9911030  20.7456080   9.6118590
   3.1902640  21.6649330   9.7053180  11.4192630  25.7034590  10.0036440
  11.8333650  25.8579670  10.8526860  10.4843630  25.8289810  10.1662220
  11.8914800  23.0430750  12.0075590  12.4735570  22.2883070  11.9196070
  12.0676570  23.5738190  11.2307070   3.0086870  18.2027500  10.3192540
   2.9143740  17.5848250   9.5943410   2.4284260  18.9293790  10.0922450
   5.7748310  16.7600740   7.3519930   5.3265610  16.7825000   6.5065480
   5.1413510  16.3619760   7.9490230   6.1807860  25.6555070   7.9732370
   6.5995970  26.4987800   7.8008610   5.2616490  25.7927110   7.7439150
   8.5171760  23.3871250   9.3570210   8.6367970  22.7912390  10.0965050
   9.3765760  23.4240940   8.9371510  10.8559660  23.9408440   7.9332720
  10.3294880  24.4651060   7.3297860  11.1991000  24.5735830   8.5642450
   4.0315280  31.9608080   9.0890100   3.4936370  32.6854140   8.7698800
   4.2849240  31.4838420   8.2987440   5.2840530  19.9292600  10.6146030
   5.8740220  19.6208450  11.3023850   4.4660770  19.4572350  10.7705930
  10.1033960  19.5458410  10.8479050   9.4149480  18.8839950  10.7829040
  10.8239980  19.0996680  11.2927510   6.8877490  33.1959290   9.3476750
   6.8136190  34.0994430   9.6549120   5.9856330  32.8771190   9.3198820
  14.4157170  30.8921470   9.6769310  13.8159160  30.9514030   8.9333230
  14.5451070  29.9526450   9.8066160  16.1175050  26.2336870   2.3615150
  16.4883880  25.4504190   1.9551120  16.7576980  26.9225970   2.1832450
  13.1008810  27.6173450   7.7745470  12.2868650  28.0470610   8.0371260
  13.5083010  28.2291860   7.1614520  14.4499210  22.7561650   9.3014690
  14.2185300  22.5274400   8.4012640  14.7103760  23.6761200   9.2559580
  12.8887280  17.9818080  12.0794390  13.7657460  17.9901480  12.4628390
  12.9008120  17.2448920  11.4686740  14.3350550  21.8347620   2.9682410
  14.8588030  21.3410270   2.3372580  14.9209970  21.9697980   3.7129980
  14.5140270  21.9187490   6.4901960  13.5642980  21.8851030   6.6046950
  14.6953280  22.8287600   6.2551730  13.6003400  15.6676050   7.8995500
  14.2375620  16.2810190   8.2654690  13.7478290  15.7036710   6.9544730
   4.7653460  30.3569550   7.0514090   4.5244820  30.6244110   6.1644610
   5.7056100  30.5275280   7.1064950   6.9707880  16.8202240  10.8070600
   6.9096770  17.4124070  11.5566010   7.9108260  16.7128200  10.6620860
   9.6082440  16.4772300  10.4462890  10.2222850  16.7951590   9.7843970
  10.1532000  15.9920890  11.0658750  16.0257620  32.3763930   7.8524730
  15.5315900  32.7732800   7.1351860  15.4170910  31.7513140   8.2462010
  10.3490480  15.0404440   6.7732180   9.4750320  15.3739550   6.5705110
  10.2401230  14.5677620   7.5984050  11.2562460  17.2475310   8.1573900
  10.9275820  16.4327070   7.7775630  12.2044760  17.2045120   8.0339590
  13.7097070  33.0187350   5.1311470  13.2500040  33.7703160   4.7569490
  13.0809530  32.2993820   5.0726270   4.1392790  31.3275590   4.3059600
   4.6557810  30.7162950   3.7807860   4.7890170  31.8304370   4.7970610
   6.8788290  32.2184080   5.1328580   7.1666100  31.9638380   4.2561590
   7.3911510  31.6661440   5.7234150   8.0965300  15.9574280   5.7125090
   7.3137090  16.4319780   5.9921850   7.8028230  15.0529110   5.6038270
  12.6486370  16.6597380   3.7574180  13.0894460  16.6042480   2.9095780
  12.3793960  17.5755390   3.8284360  14.5124940  16.2912620   1.7683000
  14.4513340  15.3473840   1.6214020  15.2916970  16.3992710   2.3136460
  10.4844500  15.0403480   2.4624190  11.0873870  15.6123690   2.9372710
   9.7437490  15.6042920   2.2398090   6.9460650  33.1400180  12.4996780
   7.8727960  32.9044450  12.5432740   6.9311080  33.9672180  12.0182810
   4.1324260  15.8044930  12.2638660   3.8508530  16.3078530  11.4999480
   4.5143960  15.0066680  11.8980790  10.7339720  15.2198510  12.8419130
  10.6205170  15.5393120  13.7370650  11.5509460  15.6211020  12.5456410
  13.5138210  32.3670040  12.3237820  14.3063530  31.8719270  12.1163780
  13.8071360  33.0460180  12.9313430   9.6397870   4.4647490  58.3027830
   9.5591920   3.5502100  58.0319540   9.2262290   4.9614560  57.5967540
   7.7715910   6.2426510  60.1837100   6.9958010   5.7626950  60.4735670
   8.4228840   5.5632160  60.0093260  11.7923340  10.6486700  58.9636230
  11.3304870   9.8773940  59.2923400  12.6048890  10.6752770  59.4688680
   1.7683000  10.5886410  61.2570880   2.0711040   9.6984150  61.0781100
   2.5126590  11.1456630  61.0293130   8.0186650  12.9344710  58.5840220
   7.3998090  13.3902210  58.0134660   8.8738430  13.0896170  58.1829920
   7.2124900   8.9183700  60.1907260   7.1433180   7.9773640  60.0296390
   7.9744760   9.0085110  60.7629830   4.2142810   3.0666080  60.2118810
   4.7221030   3.5647050  60.8523830   4.7456050   2.2901280  60.0358170
   8.8850000   7.8183950  55.9772130   8.2667270   8.2833400  55.4134850
   9.3973250   8.5111430  56.3941640  11.4137190  12.6224160  61.1004730
  11.4264350  12.2186450  60.2326990  10.8612410  13.3971450  60.9966160
  12.7082610   9.3440380  56.1894900  12.5978940   8.4014710  56.3144320
  12.7050860   9.7056020  57.0757660   8.2502890   4.9705700  55.5457390
   7.3232170   4.9043080  55.7745860   8.4027710   5.9085830  55.4312630
  12.2800180   6.5326000  56.0492640  11.6612600   6.1945550  55.4018940
  12.2624630   5.8885760  56.7571830   3.8559530   5.4970440  58.3277120
   3.4516530   4.7847690  57.8323020   3.9422650   5.1523680  59.2165160
   4.3241230   9.1838000  60.4916330   4.0269520   8.5783470  59.8124110
   5.2741050   9.2215310  60.3805690  10.4564880   5.7712810  53.0565390
  10.8958160   4.9335240  52.9103210  11.1693300   6.4042210  53.1429530
   8.5660260  10.7108880  57.0246630   9.0056170  11.4533210  56.6102020
   8.5047150  10.9535450  57.9485590  11.2330440  13.6978000  54.3809640
  11.0731580  13.4080940  55.2791470  11.0677150  12.9218130  53.8454870
   3.7118820  13.4776530  56.1581260   3.5361300  12.5612070  55.9449060
   2.8574560  13.8363820  56.3979060  10.9356570  11.2065560  52.9407640
  10.2421730  11.2042850  52.2809920  11.6779430  10.7824880  52.5101810
  10.5006500  12.8328270  57.0156130  10.9563450  12.0517650  57.3294750
  10.8399020  13.5435090  57.5597310   2.8142040   2.8584060  56.9388690
   2.5882960   2.6421230  57.8435310   2.0334570   3.2912520  56.5934660
  10.0439800   2.8647430  55.5379340   9.4448690   3.5883230  55.3542960
  10.5919410   2.8024210  54.7555790   5.7357350   1.7683000  53.0592650
   5.8570170   1.7269480  54.0078470   5.3505860   2.6307150  52.9039380
   4.7478850   4.0784140  52.4575950   4.1795750   3.6302390  51.8311860
   5.4567850   4.4376920  51.9241100   2.2926330   8.0742330  54.7302360
   1.5188590   7.5339950  54.5701080   3.0220960   7.5548940  54.3920120
  13.0514310   7.0707690  60.5228750  13.7713430   7.5662980  60.1324860
  12.8496130   6.3925580  59.8782620  11.2272640   2.8365300  52.9620300
  12.1152260   3.1482530  52.7871640  11.1977730   1.9637550  52.5700880
   2.3363730   7.7422710  58.3681170   2.8542400   6.9390970  58.3138060
   1.8847750   7.6801850  59.2098000   7.2233230   9.0088990  53.6408470
   7.5648930   9.7531220  53.1451790   6.3945940   9.3220110  54.0033300
  13.4986910   4.1477140  52.4300160  13.4150630   4.5791360  51.5796600
  14.2181100   4.6075490  52.8626980  14.5274160  11.0019400  55.1582290
  13.8850320  10.3475020  55.4326010  14.1404820  11.4074490  54.3822960
  10.1060640   8.3304830  59.0053980  10.4584460   7.7332960  58.3455350
   9.2222970   8.0049060  59.1762230   6.1923920   9.0902520  56.4124390
   6.8795050   9.6371730  56.7931980   5.4056340   9.6343250  56.4474000
   5.4951130   6.0948550  56.0249750   5.9513910   6.9053800  56.2509940
   5.1439340   5.7771690  56.8568240  12.9171540   9.8935860  51.6958640
  12.6909120   9.1766300  52.2883280  12.5267740   9.6448300  50.8580390
  12.4987790   7.8107800  53.3572800  12.2109490   8.2720490  54.1450680
  13.2939960   7.3505570  53.6257020   4.7156190  11.3033920  53.2876770
   4.7066290  12.0363610  52.6721280   3.7954550  11.0565500  53.3803730
   7.7015790  11.3662160  51.9501960   7.8027770  11.1626150  51.0203940
   6.8017530  11.1120440  52.1549740   6.3433900  13.8848480  56.6449630
   6.5975400  13.8469870  55.7229000   5.3946380  13.7581810  56.6377880
  12.3486480   4.8040360  58.2208140  11.4076620   4.8190590  58.3955830
  12.6630550   4.0176320  58.6668440   2.3268120   6.4859960  51.7812100
   3.0931390   6.3741320  52.3437530   2.4042810   5.7897930  51.1288870
  14.3512060  11.9749210  59.8962400  14.4759480  12.7980380  60.3686210
  15.2177620  11.7639940  59.5486550   1.8229590  14.0680420  59.5679530
   2.5592070  13.5195880  59.8388100   2.2070510  14.9336430  59.4285520
   4.9331900  13.2410730  51.3905100   5.7260510  13.5299560  50.9386890
   4.4136250  12.8102900  50.7117580  13.9862070  12.4680860  52.8141840
  13.7003580  12.0546000  51.9996020  13.7881620  13.3968570  52.6942360
   5.4509300   8.4614140  51.2547450   5.3459940   7.8466490  51.9808830
   5.2833520   7.9380030  50.4710460   8.6912030   7.5234170  51.8589440
   8.1422130   7.9703470  52.5032180   9.3131290   7.0183420  52.3827110
   4.3587150   6.4825090  53.7554740   4.7803570   6.3164960  54.5986130
   4.4837990   5.6725320  53.2609880   6.8714790   5.5062700  51.0031840
   7.3920450   4.7911720  50.6372990   7.5183190   6.1448570  51.3032350
   3.2546050   2.5558320  50.7012900   3.0535110   1.6925680  51.0626240
   3.0838100   2.4691680  49.7634500   7.4362820  13.5874310  53.2933580
   8.3313610  13.9259280  53.3152340   7.4680450  12.8653720  52.6657860
   2.8866700  10.0799400  56.6342810   2.5862240   9.9564370  57.5346720
   2.7804190   9.2207990  56.2258540  15.6558620   9.8595800  51.3369490
  14.8251580   9.9272450  51.8076720  15.8330450  10.7499920  51.0336350
  15.1115080   6.6043280  53.8403690  15.8733990   7.1739930  53.9463380
  15.1269450   6.0370480  54.6112000  16.1175050   7.4593380  58.6845620
  16.4883880   6.6760700  58.2781590  16.7576980   8.1482480  58.5062920
  15.1634250   6.8977650  50.9976210  15.4383090   7.8056530  50.8695430
  14.9744990   6.8340180  51.9338200  15.0599590   4.8346640  55.9905640
  14.6843190   4.0674570  55.5586930  14.3302710   5.2169340  56.4780570
  14.3350550   3.0604130  59.2912880  14.8588030   2.5666780  58.6603050
  14.9209970   3.1954490  60.0360450  13.1584860  13.5948560  57.6244210
  13.7543930  13.2733130  56.9478630  13.4163010  13.1220380  58.4157480
  13.7097070  14.2443860  61.4541940  13.2500040  14.9959670  61.0799960
  13.0809530  13.5250330  61.3956740   4.1392790  12.5532100  60.6290070
   4.6557810  11.9419460  60.1038330   4.7890170  13.0560880  61.1201080
  15.1805710  13.9082260  55.8201500  15.3557900  13.2220000  55.1762420
  14.4827280  14.4329310  55.4278170   3.0233360  14.2977100  53.3736810
   3.7552180  14.0136380  52.8260700   3.2827030  14.0590380  54.2636190
   2.1848150  10.4141830  53.3783140   1.5557030  10.8826930  53.9268970
   2.2995980   9.5691050  53.8129330   9.6397870   4.4647490  39.5284340
   9.5591920   3.5502100  39.2576050   9.2262290   4.9614560  38.8224050
   7.7715910   6.2426510  41.4093610   6.9958010   5.7626950  41.6992180
   8.4228840   5.5632160  41.2349770  11.7923340  10.6486700  40.1892740
  11.3304870   9.8773940  40.5179910  12.6048890  10.6752770  40.6945190
   1.7683000  10.5886410  42.4827390   2.0711040   9.6984150  42.3037610
   2.5126590  11.1456630  42.2549640   8.0186650  12.9344710  39.8096730
   7.3998090  13.3902210  39.2391170   8.8738430  13.0896170  39.4086430
   7.2124900   8.9183700  41.4163770   7.1433180   7.9773640  41.2552900
   7.9744760   9.0085110  41.9886340   4.2142810   3.0666080  41.4375320
   4.7221030   3.5647050  42.0780340   4.7456050   2.2901280  41.2614680
   8.8850000   7.8183950  37.2028640   8.2667270   8.2833400  36.6391360
   9.3973250   8.5111430  37.6198150   3.7481760   7.3459820  43.8812240
   3.4151140   7.9728740  44.5233310   3.9248440   7.8721700  43.1013910
   2.9600860   9.3140620  45.6961420   3.5774860   9.9891700  45.4145870
   2.0993980   9.7228600  45.6048920  13.8778450  10.7780030  43.6116060
  13.1941970  11.4479140  43.6032730  14.4172740  10.9760680  42.8460920
  11.4137190  12.6224160  42.3261240  11.4264350  12.2186450  41.4583500
  10.8612410  13.3971450  42.2222670  12.7082610   9.3440380  37.4151410
  12.5978940   8.4014710  37.5400830  12.7050860   9.7056020  38.3014170
  10.8122630   7.5254000  43.6543850  11.2291420   7.3114110  42.8197310
  11.5362450   7.7826790  44.2252470   8.2502890   4.9705700  36.7713900
   7.3232170   4.9043080  37.0002370   8.4027710   5.9085830  36.6569140
  14.7584730   5.9241220  43.7460090  13.9303360   5.9934310  43.2710220
  15.3535210   6.5095530  43.2775920  12.2800180   6.5326000  37.2749150
  11.6612600   6.1945550  36.6275450  12.2624630   5.8885760  37.9828340
  11.7226740   2.7110540  44.6914960  11.3097920   3.5364250  44.9454950
  10.9902690   2.1255580  44.4991320   3.8559530   5.4970440  39.5533630
   3.4516530   4.7847690  39.0579530   3.9422650   5.1523680  40.4421670
   4.3241230   9.1838000  41.7172840   4.0269520   8.5783470  41.0380620
   5.2741050   9.2215310  41.6062200   2.5688150   2.2713650  43.3332670
   3.1202740   2.3808990  42.5585920   3.0831660   2.6451250  44.0487900
  12.4126840  12.7569870  45.3795940  11.9357400  13.5642060  45.1868550
  11.7288630  12.1048200  45.5322150   3.4159660   8.9219690  48.3680640
   2.5188190   9.1459660  48.6154040   3.4412530   9.0454630  47.4192040
  10.4564880   5.7712810  34.2821900  10.8958160   4.9335240  34.1359720
  11.1693300   6.4042210  34.3686040   2.2430880   5.7933010  46.9438010
   2.1038650   6.6655810  47.3125410   1.3612240   5.4505820  46.7985950
   8.5660260  10.7108880  38.2503140   9.0056170  11.4533210  37.8358530
   8.5047150  10.9535450  39.1742100   4.0411230  11.7354710  49.1523160
   4.0126660  12.1397660  48.2851590   3.8776200  10.8065070  48.9894760
  15.9926050  12.5181810  50.4487330  16.4685770  12.9964700  51.1276410
  16.6133210  12.4499300  49.7232830  15.3959300   9.7094660  47.6087340
  15.5222360   9.4706540  46.6904520  15.4380680   8.8779200  48.0809420
   9.2576040  13.4122660  46.1782150   9.7720710  13.3230670  46.9804580
   8.4145120  13.7582360  46.4710060  11.2330440  13.6978000  35.6066150
  11.0731580  13.4080940  36.5047980  11.0677150  12.9218130  35.0711380
   3.7118820  13.4776530  37.3837770   3.5361300  12.5612070  37.1705570
   2.8574560  13.8363820  37.6235570  10.9356570  11.2065560  34.1664150
  10.2421730  11.2042850  33.5066430  11.6779430  10.7824880  33.7358320
  10.5006500  12.8328270  38.2412640  10.9563450  12.0517650  38.5551260
  10.8399020  13.5435090  38.7853820   9.4051850   3.3229710  49.2694720
   9.7305260   2.4893460  48.9296950  10.1932180   3.8458230  49.4173050
   2.8142040   2.8584060  38.1645200   2.5882960   2.6421230  39.0691820
   2.0334570   3.2912520  37.8191170  10.0439800   2.8647430  36.7635850
   9.4448690   3.5883230  36.5799470  10.5919410   2.8024210  35.9812300
   5.2541250   3.7569640  48.8305470   5.1584850   2.8164370  48.6805870
   6.0973230   3.9784710  48.4353540   9.2359810   4.0916720  42.8889910
   8.5040930   4.6003530  43.2380010   8.8384150   3.2746700  42.5878690
   5.7357350   1.7683000  34.2849160   5.8570170   1.7269480  35.2334980
   5.3505860   2.6307150  34.1295890   4.7478850   4.0784140  33.6832460
   4.1795750   3.6302390  33.0568370   5.4567850   4.4376920  33.1497610
   5.9745170   4.8272700  43.0407810   6.3415300   4.3531270  43.7869150
   5.7850230   5.7014270  43.3816150   3.7644540   3.8681340  45.3592020
   3.4601610   4.7473320  45.5842380   4.7191000   3.9281130  45.3949460
   2.2926330   8.0742330  35.9558870   1.5188590   7.5339950  35.7957590
   3.0220960   7.5548940  35.6176630  13.0514310   7.0707690  41.7485260
  13.7713430   7.5662980  41.3581370  12.8496130   6.3925580  41.1039130
   8.4333110   7.1416750  47.6354260   8.3670420   6.2212420  47.3811850
   7.8038250   7.2392190  48.3498900  11.2272640   2.8365300  34.1876810
  12.1152260   3.1482530  34.0128150  11.1977730   1.9637550  33.7957390
   2.3363730   7.7422710  39.5937680   2.8542400   6.9390970  39.5394570
   1.8847750   7.6801850  40.4354510   7.2233230   9.0088990  34.8664980
   7.5648930   9.7531220  34.3708300   6.3945940   9.3220110  35.2289810
   3.0221390   5.1668320  49.3902930   2.7221530   5.3125500  48.4930750
   3.7932630   4.6073610  49.2976320   8.3649840   9.9637320  47.3858060
   8.3794380   9.0318280  47.1676970   7.6574940  10.0497080  48.0247830
  13.4986910   4.1477140  33.6556670  13.4150630   4.5791360  32.8053110
  14.2181100   4.6075490  34.0883490  14.5761050   6.6044660  46.7326640
  13.8509240   7.1973440  46.5356030  15.1036510   6.5968200  45.9340010
  14.5274160  11.0019400  36.3838800  13.8850320  10.3475020  36.6582520
  14.1404820  11.4074490  35.6079470  10.1060640   8.3304830  40.2310490
  10.4584460   7.7332960  39.5711860   9.2222970   8.0049060  40.4018740
   6.1923920   9.0902520  37.6380900   6.8795050   9.6371730  38.0188490
   5.4056340   9.6343250  37.6730510   5.4951130   6.0948550  37.2506260
   5.9513910   6.9053800  37.4766450   5.1439340   5.7771690  38.0824750
   7.7983740  11.6054890  44.4798560   8.4425960  11.8114270  45.1571980
   8.1613180  10.8443290  44.0269410   9.0715820   9.6087240  43.1976010
   9.7138050   8.9080400  43.3108180   9.5965170  10.3885680  43.0172900
  12.9171540   9.8935860  32.9215150  12.6909120   9.1766300  33.5139790
  12.5267740   9.6448300  32.0836900  10.8453440  10.4082140  46.4012070
  11.1809680  10.9948830  47.0789990   9.9253780  10.2774850  46.6309860
  12.4987790   7.8107800  34.5829310  12.2109490   8.2720490  35.3707190
  13.2939960   7.3505570  34.8513530   6.6742020  10.4573470  49.5700130
   6.3538890   9.7382710  50.1145820   6.0000380  11.1328540  49.6436190
   4.7156190  11.3033920  34.5133280   4.7066290  12.0363610  33.8977790
   3.7954550  11.0565500  34.6060240   7.7015790  11.3662160  33.1758470
   7.8027770  11.1626150  32.2460450   6.8017530  11.1120440  33.3806250
   6.8497610   3.3439220  45.1574900   7.3482860   3.8185040  45.8226750
   6.9920560   2.4202740  45.3644930   6.3433900  13.8848480  37.8706140
   6.5975400  13.8469870  36.9485510   5.3946380  13.7581810  37.8634390
  12.3486480   4.8040360  39.4464650  11.4076620   4.8190590  39.6212340
  12.6630550   4.0176320  39.8924950   2.3268120   6.4859960  33.0068610
   3.0931390   6.3741320  33.5694040   2.4042810   5.7897930  32.3545380
  14.3512060  11.9749210  41.1218910  14.4759480  12.7980380  41.5942720
  15.2177620  11.7639940  40.7743060   1.8229590  14.0680420  40.7936040
   2.5592070  13.5195880  41.0644610   2.2070510  14.9336430  40.6542030
   4.9331900  13.2410730  32.6161610   5.7260510  13.5299560  32.1643400
   4.4136250  12.8102900  31.9374090   9.6652500   9.3606360  49.9297030
   9.0590660   9.3837960  49.1892780   9.3606610   8.6289400  50.4664280
  11.0952870  13.0886650  48.5406440  12.0474620  13.0044670  48.4906680
  10.9481090  13.7528360  49.2140230  13.9862070  12.4680860  34.0398350
  13.7003580  12.0546000  33.2252530  13.7881620  13.3968570  33.9198870
   5.4509300   8.4614140  32.4803960   5.3459940   7.8466490  33.2065340
   5.2833520   7.9380030  31.6966970   5.6023620   7.1470940  48.4593190
   4.8369290   7.7155940  48.3747860   5.7839580   6.8547150  47.5661420
   8.6912030   7.5234170  33.0845950   8.1422130   7.9703470  33.7288690
   9.3131290   7.0183420  33.6083620  12.7446970   8.8776270  49.0168210
  13.4856440   9.2152030  48.5135670  11.9819650   9.0468330  48.4637980
   4.3587150   6.4825090  34.9811250   4.7803570   6.3164960  35.8242640
   4.4837990   5.6725320  34.4866390   2.5214570   2.4621640  47.7882230
   1.9911030   1.9712590  47.1605570   3.1902640   2.8905840  47.2540160
   6.8714790   5.5062700  32.2288350   7.3920450   4.7911720  31.8629500
   7.5183190   6.1448570  32.5288860  11.4192630   6.9291100  47.5523420
  11.8333650   7.0836180  48.4013840  10.4843630   7.0546320  47.7149200
  11.8914800   4.2687260  49.5562570  12.4735570   3.5139580  49.4683050
  12.0676570   4.7994700  48.7794050   6.1807860   6.8811580  45.5219350
   6.5995970   7.7244310  45.3495590   5.2616490   7.0183620  45.2926130
   8.5171760   4.6127760  46.9057190   8.6367970   4.0168900  47.6452030
   9.3765760   4.6497450  46.4858490  10.8559660   5.1664950  45.4819700
  10.3294880   5.6907570  44.8784840  11.1991000   5.7992340  46.1129430
   3.2546050   2.5558320  31.9269410   3.0535110   1.6925680  32.2882750
   3.0838100   2.4691680  30.9891010   4.0315280  13.1864590  46.6377080
   3.4936370  13.9110650  46.3185780   4.2849240  12.7094930  45.8474420
   6.8877490  14.4215800  46.8963730   6.8136190  15.3250940  47.2036100
   5.9856330  14.1027700  46.8685800   7.4362820  13.5874310  34.5190090
   8.3313610  13.9259280  34.5408850   7.4680450  12.8653720  33.8914370
   2.8866700  10.0799400  37.8599320   2.5862240   9.9564370  38.7603230
   2.7804190   9.2207990  37.4515050  14.4157170  12.1177980  47.2256290
  13.8159160  12.1770540  46.4820210  14.5451070  11.1782960  47.3553140
  15.6558620   9.8595800  32.5626000  14.8251580   9.9272450  33.0333230
  15.8330450  10.7499920  32.2592860  15.1115080   6.6043280  35.0660200
  15.8733990   7.1739930  35.1719890  15.1269450   6.0370480  35.8368510
  16.1175050   7.4593380  39.9102130  16.4883880   6.6760700  39.5038100
  16.7576980   8.1482480  39.7319430  13.1008810   8.8429960  45.3232450
  12.2868650   9.2727120  45.5858240  13.5083010   9.4548370  44.7101500
  15.1634250   6.8977650  32.2232720  15.4383090   7.8056530  32.0951940
  14.9744990   6.8340180  33.1594710  15.0599590   4.8346640  37.2162150
  14.6843190   4.0674570  36.7843440  14.3302710   5.2169340  37.7037080
  14.4499210   3.9818160  46.8501670  14.2185300   3.7530910  45.9499620
  14.7103760   4.9017710  46.8046560  14.3350550   3.0604130  40.5169390
  14.8588030   2.5666780  39.8859560  14.9209970   3.1954490  41.2616960
  14.5140270   3.1444000  44.0388940  13.5642980   3.1107540  44.1533930
  14.6953280   4.0544110  43.8038710  13.1584860  13.5948560  38.8500720
  13.7543930  13.2733130  38.1735140  13.4163010  13.1220380  39.6413990
   4.7653460  11.5826060  44.6001070   4.5244820  11.8500620  43.7131590
   5.7056100  11.7531790  44.6551930  16.0257620  13.6020440  45.4011710
  15.5315900  13.9989310  44.6838840  15.4170910  12.9769650  45.7948990
  13.7097070  14.2443860  42.6798450  13.2500040  14.9959670  42.3056470
  13.0809530  13.5250330  42.6213250   4.1392790  12.5532100  41.8546580
   4.6557810  11.9419460  41.3294840   4.7890170  13.0560880  42.3457590
   6.8788290  13.4440590  42.6815560   7.1666100  13.1894890  41.8048570
   7.3911510  12.8917950  43.2721130   6.9460650  14.3656690  50.0483760
   7.8727960  14.1300960  50.0919720   6.9311080  15.1928690  49.5669790
  15.1805710  13.9082260  37.0458010  15.3557900  13.2220000  36.4018930
  14.4827280  14.4329310  36.6534680   3.0233360  14.2977100  34.5993320
   3.7552180  14.0136380  34.0517210   3.2827030  14.0590380  35.4892700
   2.1848150  10.4141830  34.6039650   1.5557030  10.8826930  35.1525480
   2.2995980   9.5691050  35.0385840  13.5138210  13.5926550  49.8724800
  14.3063530  13.0975780  49.6650760  13.8071360  14.2716690  50.4800410
   9.6397870   4.4647490  20.7540850   9.5591920   3.5502100  20.4832560
   9.2262290   4.9614560  20.0480560   7.7715910   6.2426510  22.6350120
   6.9958010   5.7626950  22.9248690   8.4228840   5.5632160  22.4606280
  11.7923340  10.6486700  21.4149250  11.3304870   9.8773940  21.7436420
  12.6048890  10.6752770  21.9201700   1.7683000  10.5886410  23.7083900
   2.0711040   9.6984150  23.5294120   2.5126590  11.1456630  23.4806150
   8.0186650  12.9344710  21.0353240   7.3998090  13.3902210  20.4647680
   8.8738430  13.0896170  20.6342940   7.2124900   8.9183700  22.6420280
   7.1433180   7.9773640  22.4809410   7.9744760   9.0085110  23.2142850
   4.2142810   3.0666080  22.6631830   4.7221030   3.5647050  23.3036850
   4.7456050   2.2901280  22.4871190   8.8850000   7.8183950  18.4285150
   8.2667270   8.2833400  17.8647870   9.3973250   8.5111430  18.8454660
   3.7481760   7.3459820  25.1068750   3.4151140   7.9728740  25.7489820
   3.9248440   7.8721700  24.3270420   2.9600860   9.3140620  26.9217930
   3.5774860   9.9891700  26.6402380   2.0993980   9.7228600  26.8305430
  13.8778450  10.7780030  24.8372570  13.1941970  11.4479140  24.8289240
  14.4172740  10.9760680  24.0717430  11.4137190  12.6224160  23.5517750
  11.4264350  12.2186450  22.6840010  10.8612410  13.3971450  23.4479180
  12.7082610   9.3440380  18.6407920  12.5978940   8.4014710  18.7657340
  12.7050860   9.7056020  19.5270680  10.8122630   7.5254000  24.8800360
  11.2291420   7.3114110  24.0453820  11.5362450   7.7826790  25.4508980
   8.2502890   4.9705700  17.9970410   7.3232170   4.9043080  18.2258880
   8.4027710   5.9085830  17.8825650  14.7584730   5.9241220  24.9716600
  13.9303360   5.9934310  24.4966730  15.3535210   6.5095530  24.5032430
  12.2800180   6.5326000  18.5005660  11.6612600   6.1945550  17.8531960
  12.2624630   5.8885760  19.2084850  11.7226740   2.7110540  25.9171470
  11.3097920   3.5364250  26.1711460  10.9902690   2.1255580  25.7247830
   3.8559530   5.4970440  20.7790140   3.4516530   4.7847690  20.2836040
   3.9422650   5.1523680  21.6678180   4.3241230   9.1838000  22.9429350
   4.0269520   8.5783470  22.2637130   5.2741050   9.2215310  22.8318710
   2.5688150   2.2713650  24.5589180   3.1202740   2.3808990  23.7842430
   3.0831660   2.6451250  25.2744410  12.4126840  12.7569870  26.6052450
  11.9357400  13.5642060  26.4125060  11.7288630  12.1048200  26.7578660
   3.4159660   8.9219690  29.5937150   2.5188190   9.1459660  29.8410550
   3.4412530   9.0454630  28.6448550  10.4564880   5.7712810  15.5078410
  10.8958160   4.9335240  15.3616230  11.1693300   6.4042210  15.5942550
   2.2430880   5.7933010  28.1694520   2.1038650   6.6655810  28.5381920
   1.3612240   5.4505820  28.0242460   8.5660260  10.7108880  19.4759650
   9.0056170  11.4533210  19.0615040   8.5047150  10.9535450  20.3998610
   4.0411230  11.7354710  30.3779670   4.0126660  12.1397660  29.5108100
   3.8776200  10.8065070  30.2151270  15.9926050  12.5181810  31.6743840
  16.4685770  12.9964700  32.3532920  16.6133210  12.4499300  30.9489340
  15.3959300   9.7094660  28.8343850  15.5222360   9.4706540  27.9161030
  15.4380680   8.8779200  29.3065930   9.2576040  13.4122660  27.4038660
   9.7720710  13.3230670  28.2061090   8.4145120  13.7582360  27.6966570
  11.2330440  13.6978000  16.8322660  11.0731580  13.4080940  17.7304490
  11.0677150  12.9218130  16.2967890   3.7118820  13.4776530  18.6094280
   3.5361300  12.5612070  18.3962080   2.8574560  13.8363820  18.8492080
  10.9356570  11.2065560  15.3920660  10.2421730  11.2042850  14.7322940
  11.6779430  10.7824880  14.9614830  10.5006500  12.8328270  19.4669150
  10.9563450  12.0517650  19.7807770  10.8399020  13.5435090  20.0110330
   9.4051850   3.3229710  30.4951230   9.7305260   2.4893460  30.1553460
  10.1932180   3.8458230  30.6429560   2.8142040   2.8584060  19.3901710
   2.5882960   2.6421230  20.2948330   2.0334570   3.2912520  19.0447680
  10.0439800   2.8647430  17.9892360   9.4448690   3.5883230  17.8055980
  10.5919410   2.8024210  17.2068810   5.2541250   3.7569640  30.0561980
   5.1584850   2.8164370  29.9062380   6.0973230   3.9784710  29.6610050
   9.2359810   4.0916720  24.1146420   8.5040930   4.6003530  24.4636520
   8.8384150   3.2746700  23.8135200   5.7357350   1.7683000  15.5105670
   5.8570170   1.7269480  16.4591490   5.3505860   2.6307150  15.3552400
   4.7478850   4.0784140  14.9088970   4.1795750   3.6302390  14.2824880
   5.4567850   4.4376920  14.3754120   5.9745170   4.8272700  24.2664320
   6.3415300   4.3531270  25.0125660   5.7850230   5.7014270  24.6072660
   3.7644540   3.8681340  26.5848530   3.4601610   4.7473320  26.8098890
   4.7191000   3.9281130  26.6205970   2.2926330   8.0742330  17.1815380
   1.5188590   7.5339950  17.0214100   3.0220960   7.5548940  16.8433140
  13.0514310   7.0707690  22.9741770  13.7713430   7.5662980  22.5837880
  12.8496130   6.3925580  22.3295640   8.4333110   7.1416750  28.8610770
   8.3670420   6.2212420  28.6068360   7.8038250   7.2392190  29.5755410
  11.2272640   2.8365300  15.4133320  12.1152260   3.1482530  15.2384660
  11.1977730   1.9637550  15.0213900   2.3363730   7.7422710  20.8194190
   2.8542400   6.9390970  20.7651080   1.8847750   7.6801850  21.6611020
   7.2233230   9.0088990  16.0921490   7.5648930   9.7531220  15.5964810
   6.3945940   9.3220110  16.4546320   3.0221390   5.1668320  30.6159440
   2.7221530   5.3125500  29.7187260   3.7932630   4.6073610  30.5232830
   8.3649840   9.9637320  28.6114570   8.3794380   9.0318280  28.3933480
   7.6574940  10.0497080  29.2504340  13.4986910   4.1477140  14.8813180
  13.4150630   4.5791360  14.0309620  14.2181100   4.6075490  15.3140000
  14.5761050   6.6044660  27.9583150  13.8509240   7.1973440  27.7612540
  15.1036510   6.5968200  27.1596520  14.5274160  11.0019400  17.6095310
  13.8850320  10.3475020  17.8839030  14.1404820  11.4074490  16.8335980
  10.1060640   8.3304830  21.4567000  10.4584460   7.7332960  20.7968370
   9.2222970   8.0049060  21.6275250   6.1923920   9.0902520  18.8637410
   6.8795050   9.6371730  19.2445000   5.4056340   9.6343250  18.8987020
   5.4951130   6.0948550  18.4762770   5.9513910   6.9053800  18.7022960
   5.1439340   5.7771690  19.3081260   7.7983740  11.6054890  25.7055070
   8.4425960  11.8114270  26.3828490   8.1613180  10.8443290  25.2525920
   9.0715820   9.6087240  24.4232520   9.7138050   8.9080400  24.5364690
   9.5965170  10.3885680  24.2429410  12.9171540   9.8935860  14.1471660
  12.6909120   9.1766300  14.7396300  12.5267740   9.6448300  13.3093410
  10.8453440  10.4082140  27.6268580  11.1809680  10.9948830  28.3046500
   9.9253780  10.2774850  27.8566370  12.4987790   7.8107800  15.8085820
  12.2109490   8.2720490  16.5963700  13.2939960   7.3505570  16.0770040
   6.6742020  10.4573470  30.7956640   6.3538890   9.7382710  31.3402330
   6.0000380  11.1328540  30.8692700   4.7156190  11.3033920  15.7389790
   4.7066290  12.0363610  15.1234300   3.7954550  11.0565500  15.8316750
   7.7015790  11.3662160  14.4014980   7.8027770  11.1626150  13.4716960
   6.8017530  11.1120440  14.6062760   6.8497610   3.3439220  26.3831410
   7.3482860   3.8185040  27.0483260   6.9920560   2.4202740  26.5901440
   6.3433900  13.8848480  19.0962650   6.5975400  13.8469870  18.1742020
   5.3946380  13.7581810  19.0890900  12.3486480   4.8040360  20.6721160
  11.4076620   4.8190590  20.8468850  12.6630550   4.0176320  21.1181460
   2.3268120   6.4859960  14.2325120   3.0931390   6.3741320  14.7950550
   2.4042810   5.7897930  13.5801890  14.3512060  11.9749210  22.3475420
  14.4759480  12.7980380  22.8199230  15.2177620  11.7639940  21.9999570
   1.8229590  14.0680420  22.0192550   2.5592070  13.5195880  22.2901120
   2.2070510  14.9336430  21.8798540   4.9331900  13.2410730  13.8418120
   5.7260510  13.5299560  13.3899910   4.4136250  12.8102900  13.1630600
   9.6652500   9.3606360  31.1553540   9.0590660   9.3837960  30.4149290
   9.3606610   8.6289400  31.6920790  11.0952870  13.0886650  29.7662950
  12.0474620  13.0044670  29.7163190  10.9481090  13.7528360  30.4396740
  13.9862070  12.4680860  15.2654860  13.7003580  12.0546000  14.4509040
  13.7881620  13.3968570  15.1455380   5.4509300   8.4614140  13.7060470
   5.3459940   7.8466490  14.4321850   5.2833520   7.9380030  12.9223480
   5.6023620   7.1470940  29.6849700   4.8369290   7.7155940  29.6004370
   5.7839580   6.8547150  28.7917930   8.6912030   7.5234170  14.3102460
   8.1422130   7.9703470  14.9545200   9.3131290   7.0183420  14.8340130
  12.7446970   8.8776270  30.2424720  13.4856440   9.2152030  29.7392180
  11.9819650   9.0468330  29.6894490   4.3587150   6.4825090  16.2067760
   4.7803570   6.3164960  17.0499150   4.4837990   5.6725320  15.7122900
   2.5214570   2.4621640  29.0138740   1.9911030   1.9712590  28.3862080
   3.1902640   2.8905840  28.4796670   6.8714790   5.5062700  13.4544860
   7.3920450   4.7911720  13.0886010   7.5183190   6.1448570  13.7545370
  11.4192630   6.9291100  28.7779930  11.8333650   7.0836180  29.6270350
  10.4843630   7.0546320  28.9405710  11.8914800   4.2687260  30.7819080
  12.4735570   3.5139580  30.6939560  12.0676570   4.7994700  30.0050560
   6.1807860   6.8811580  26.7475860   6.5995970   7.7244310  26.5752100
   5.2616490   7.0183620  26.5182640   8.5171760   4.6127760  28.1313700
   8.6367970   4.0168900  28.8708540   9.3765760   4.6497450  27.7115000
  10.8559660   5.1664950  26.7076210  10.3294880   5.6907570  26.1041350
  11.1991000   5.7992340  27.3385940   3.2546050   2.5558320  13.1525920
   3.0535110   1.6925680  13.5139260   3.0838100   2.4691680  12.2147520
   4.0315280  13.1864590  27.8633590   3.4936370  13.9110650  27.5442290
   4.2849240  12.7094930  27.0730930   6.8877490  14.4215800  28.1220240
   6.8136190  15.3250940  28.4292610   5.9856330  14.1027700  28.0942310
   7.4362820  13.5874310  15.7446600   8.3313610  13.9259280  15.7665360
   7.4680450  12.8653720  15.1170880   2.8866700  10.0799400  19.0855830
   2.5862240   9.9564370  19.9859740   2.7804190   9.2207990  18.6771560
  14.4157170  12.1177980  28.4512800  13.8159160  12.1770540  27.7076720
  14.5451070  11.1782960  28.5809650  15.6558620   9.8595800  13.7882510
  14.8251580   9.9272450  14.2589740  15.8330450  10.7499920  13.4849370
  15.1115080   6.6043280  16.2916710  15.8733990   7.1739930  16.3976400
  15.1269450   6.0370480  17.0625020  16.1175050   7.4593380  21.1358640
  16.4883880   6.6760700  20.7294610  16.7576980   8.1482480  20.9575940
  13.1008810   8.8429960  26.5488960  12.2868650   9.2727120  26.8114750
  13.5083010   9.4548370  25.9358010  15.1634250   6.8977650  13.4489230
  15.4383090   7.8056530  13.3208450  14.9744990   6.8340180  14.3851220
  15.0599590   4.8346640  18.4418660  14.6843190   4.0674570  18.0099950
  14.3302710   5.2169340  18.9293590  14.4499210   3.9818160  28.0758180
  14.2185300   3.7530910  27.1756130  14.7103760   4.9017710  28.0303070
  14.3350550   3.0604130  21.7425900  14.8588030   2.5666780  21.1116070
  14.9209970   3.1954490  22.4873470  14.5140270   3.1444000  25.2645450
  13.5642980   3.1107540  25.3790440  14.6953280   4.0544110  25.0295220
  13.1584860  13.5948560  20.0757230  13.7543930  13.2733130  19.3991650
  13.4163010  13.1220380  20.8670500   4.7653460  11.5826060  25.8257580
   4.5244820  11.8500620  24.9388100   5.7056100  11.7531790  25.8808440
  16.0257620  13.6020440  26.6268220  15.5315900  13.9989310  25.9095350
  15.4170910  12.9769650  27.0205500  13.7097070  14.2443860  23.9054960
  13.2500040  14.9959670  23.5312980  13.0809530  13.5250330  23.8469760
   4.1392790  12.5532100  23.0803090   4.6557810  11.9419460  22.5551350
   4.7890170  13.0560880  23.5714100   6.8788290  13.4440590  23.9072070
   7.1666100  13.1894890  23.0305080   7.3911510  12.8917950  24.4977640
   6.9460650  14.3656690  31.2740270   7.8727960  14.1300960  31.3176230
   6.9311080  15.1928690  30.7926300  15.1805710  13.9082260  18.2714520
  15.3557900  13.2220000  17.6275440  14.4827280  14.4329310  17.8791190
   3.0233360  14.2977100  15.8249830   3.7552180  14.0136380  15.2773720
   3.2827030  14.0590380  16.7149210   2.1848150  10.4141830  15.8296160
   1.5557030  10.8826930  16.3781990   2.2995980   9.5691050  16.2642350
  13.5138210  13.5926550  31.0981310  14.3063530  13.0975780  30.8907270
  13.8071360  14.2716690  31.7056920   7.7715910   6.2426510   3.8606630
   6.9958010   5.7626950   4.1505200   8.4228840   5.5632160   3.6862790
  11.7923340  10.6486700   2.6405760  11.3304870   9.8773940   2.9692930
  12.6048890  10.6752770   3.1458210   1.7683000  10.5886410   4.9340410
   2.0711040   9.6984150   4.7550630   2.5126590  11.1456630   4.7062660
   8.0186650  12.9344710   2.2609750   7.3998090  13.3902210   1.6904190
   8.8738430  13.0896170   1.8599450   7.2124900   8.9183700   3.8676790
   7.1433180   7.9773640   3.7065920   7.9744760   9.0085110   4.4399360
   4.2142810   3.0666080   3.8888340   4.7221030   3.5647050   4.5293360
   4.7456050   2.2901280   3.7127700   3.7481760   7.3459820   6.3325260
   3.4151140   7.9728740   6.9746330   3.9248440   7.8721700   5.5526930
   2.9600860   9.3140620   8.1474440   3.5774860   9.9891700   7.8658890
   2.0993980   9.7228600   8.0561940  13.8778450  10.7780030   6.0629080
  13.1941970  11.4479140   6.0545750  14.4172740  10.9760680   5.2973940
  11.4137190  12.6224160   4.7774260  11.4264350  12.2186450   3.9096520
  10.8612410  13.3971450   4.6735690  10.8122630   7.5254000   6.1056870
  11.2291420   7.3114110   5.2710330  11.5362450   7.7826790   6.6765490
  14.7584730   5.9241220   6.1973110  13.9303360   5.9934310   5.7223240
  15.3535210   6.5095530   5.7288940  11.7226740   2.7110540   7.1427980
  11.3097920   3.5364250   7.3967970  10.9902690   2.1255580   6.9504340
   4.3241230   9.1838000   4.1685860   4.0269520   8.5783470   3.4893640
   5.2741050   9.2215310   4.0575220   2.5688150   2.2713650   5.7845690
   3.1202740   2.3808990   5.0098940   3.0831660   2.6451250   6.5000920
  12.4126840  12.7569870   7.8308960  11.9357400  13.5642060   7.6381570
  11.7288630  12.1048200   7.9835170   3.4159660   8.9219690  10.8193660
   2.5188190   9.1459660  11.0667060   3.4412530   9.0454630   9.8705060
   2.2430880   5.7933010   9.3951030   2.1038650   6.6655810   9.7638430
   1.3612240   5.4505820   9.2498970   4.0411230  11.7354710  11.6036180
   4.0126660  12.1397660  10.7364610   3.8776200  10.8065070  11.4407780
  15.9926050  12.5181810  12.9000350  16.4685770  12.9964700  13.5789430
  16.6133210  12.4499300  12.1745850  15.3959300   9.7094660  10.0600360
  15.5222360   9.4706540   9.1417540  15.4380680   8.8779200  10.5322440
   9.2576040  13.4122660   8.6295170   9.7720710  13.3230670   9.4317600
   8.4145120  13.7582360   8.9223080   9.4051850   3.3229710  11.7207740
   9.7305260   2.4893460  11.3809970  10.1932180   3.8458230  11.8686070
   5.2541250   3.7569640  11.2818490   5.1584850   2.8164370  11.1318890
   6.0973230   3.9784710  10.8866560   9.2359810   4.0916720   5.3402930
   8.5040930   4.6003530   5.6893030   8.8384150   3.2746700   5.0391710
   5.9745170   4.8272700   5.4920830   6.3415300   4.3531270   6.2382170
   5.7850230   5.7014270   5.8329170   3.7644540   3.8681340   7.8105040
   3.4601610   4.7473320   8.0355400   4.7191000   3.9281130   7.8462480
  13.0514310   7.0707690   4.1998280  13.7713430   7.5662980   3.8094390
  12.8496130   6.3925580   3.5552150   8.4333110   7.1416750  10.0867280
   8.3670420   6.2212420   9.8324870   7.8038250   7.2392190  10.8011920
   2.3363730   7.7422710   2.0450700   2.8542400   6.9390970   1.9907590
   1.8847750   7.6801850   2.8867530   3.0221390   5.1668320  11.8415950
   2.7221530   5.3125500  10.9443770   3.7932630   4.6073610  11.7489340
   8.3649840   9.9637320   9.8371080   8.3794380   9.0318280   9.6189990
   7.6574940  10.0497080  10.4760850  14.5761050   6.6044660   9.1839660
  13.8509240   7.1973440   8.9869050  15.1036510   6.5968200   8.3853030
  10.1060640   8.3304830   2.6823510  10.4584460   7.7332960   2.0224880
   9.2222970   8.0049060   2.8531760   7.7983740  11.6054890   6.9311580
   8.4425960  11.8114270   7.6085000   8.1613180  10.8443290   6.4782430
   9.0715820   9.6087240   5.6489030   9.7138050   8.9080400   5.7621200
   9.5965170  10.3885680   5.4685920  10.8453440  10.4082140   8.8525090
  11.1809680  10.9948830   9.5303010   9.9253780  10.2774850   9.0822880
   6.6742020  10.4573470  12.0213150   6.3538890   9.7382710  12.5658840
   6.0000380  11.1328540  12.0949210   6.8497610   3.3439220   7.6087920
   7.3482860   3.8185040   8.2739770   6.9920560   2.4202740   7.8157950
  12.3486480   4.8040360   1.8977670  11.4076620   4.8190590   2.0725360
  12.6630550   4.0176320   2.3437970  14.3512060  11.9749210   3.5731930
  14.4759480  12.7980380   4.0455740  15.2177620  11.7639940   3.2256080
   1.8229590  14.0680420   3.2449060   2.5592070  13.5195880   3.5157630
   2.2070510  14.9336430   3.1055050   9.6652500   9.3606360  12.3810050
   9.0590660   9.3837960  11.6405800   9.3606610   8.6289400  12.9177300
  11.0952870  13.0886650  10.9919460  12.0474620  13.0044670  10.9419700
  10.9481090  13.7528360  11.6653250   5.6023620   7.1470940  10.9106210
   4.8369290   7.7155940  10.8260880   5.7839580   6.8547150  10.0174440
  12.7446970   8.8776270  11.4681230  13.4856440   9.2152030  10.9648690
  11.9819650   9.0468330  10.9151000   2.5214570   2.4621640  10.2395250
   1.9911030   1.9712590   9.6118590   3.1902640   2.8905840   9.7053180
  11.4192630   6.9291100  10.0036440  11.8333650   7.0836180  10.8526860
  10.4843630   7.0546320  10.1662220  11.8914800   4.2687260  12.0075590
  12.4735570   3.5139580  11.9196070  12.0676570   4.7994700  11.2307070
   6.1807860   6.8811580   7.9732370   6.5995970   7.7244310   7.8008610
   5.2616490   7.0183620   7.7439150   8.5171760   4.6127760   9.3570210
   8.6367970   4.0168900  10.0965050   9.3765760   4.6497450   8.9371510
  10.8559660   5.1664950   7.9332720  10.3294880   5.6907570   7.3297860
  11.1991000   5.7992340   8.5642450   4.0315280  13.1864590   9.0890100
   3.4936370  13.9110650   8.7698800   4.2849240  12.7094930   8.2987440
   6.8877490  14.4215800   9.3476750   6.8136190  15.3250940   9.6549120
   5.9856330  14.1027700   9.3198820  14.4157170  12.1177980   9.6769310
  13.8159160  12.1770540   8.9333230  14.5451070  11.1782960   9.8066160
  16.1175050   7.4593380   2.3615150  16.4883880   6.6760700   1.9551120
  16.7576980   8.1482480   2.1832450  13.1008810   8.8429960   7.7745470
  12.2868650   9.2727120   8.0371260  13.5083010   9.4548370   7.1614520
  14.4499210   3.9818160   9.3014690  14.2185300   3.7530910   8.4012640
  14.7103760   4.9017710   9.2559580  14.3350550   3.0604130   2.9682410
  14.8588030   2.5666780   2.3372580  14.9209970   3.1954490   3.7129980
  14.5140270   3.1444000   6.4901960  13.5642980   3.1107540   6.6046950
  14.6953280   4.0544110   6.2551730   4.7653460  11.5826060   7.0514090
   4.5244820  11.8500620   6.1644610   5.7056100  11.7531790   7.1064950
  16.0257620  13.6020440   7.8524730  15.5315900  13.9989310   7.1351860
  15.4170910  12.9769650   8.2462010  13.7097070  14.2443860   5.1311470
  13.2500040  14.9959670   4.7569490  13.0809530  13.5250330   5.0726270
   4.1392790  12.5532100   4.3059600   4.6557810  11.9419460   3.7807860
   4.7890170  13.0560880   4.7970610   6.8788290  13.4440590   5.1328580
   7.1666100  13.1894890   4.2561590   7.3911510  12.8917950   5.7234150
   6.9460650  14.3656690  12.4996780   7.8727960  14.1300960  12.5432740
   6.9311080  15.1928690  12.0182810  13.5138210  13.5926550  12.3237820
  14.3063530  13.0975780  12.1163780  13.8071360  14.2716690  12.9313430
  69.5555990  65.3137070  62.2984170  90.0000000  90.0000000  90.0000000
