default_name
  2746
  12.7700000 -27.8120000  14.7980000  13.3050000 -27.5430000  15.5990000
  13.3880000 -27.9190000  14.0190000  12.1580000 -28.5590000  15.0570000
  11.8860000 -26.6900000  14.4410000  11.1620000 -26.5280000  15.2530000
  12.6820000 -25.3830000  14.2200000  13.2660000 -25.2030000  15.1340000
  13.3660000 -25.5610000  13.3770000  11.8090000 -24.1540000  13.9200000
  11.3350000 -24.3270000  12.9430000  11.0350000 -24.1100000  14.7000000
  12.7030000 -22.5780000  13.8780000  13.5860000 -22.7470000  12.3040000
  12.8600000 -22.8680000  11.4870000  14.1920000 -21.8470000  12.1240000
  14.2420000 -23.6290000  12.3440000  11.0700000 -27.1270000  13.2020000
  11.6520000 -27.3770000  12.1440000   9.7410000 -27.2240000  13.3720000
   9.3640000 -26.8510000  14.2200000   8.8160000 -27.8100000  12.3990000
   9.3160000 -28.0220000  11.4430000   8.2470000 -29.1410000  12.9670000
   7.8090000 -28.8900000  13.9440000   7.1950000 -29.8580000  12.1030000
   7.6320000 -30.1090000  11.1250000   6.8720000 -30.7810000  12.6080000
   6.3280000 -29.1970000  11.9570000   9.3060000 -30.0540000  13.1730000
   8.9410000 -30.9100000  13.5390000   7.6350000 -26.8560000  12.1410000
   7.1080000 -26.2700000  13.0880000   7.2170000 -26.7490000  10.8670000
   7.7850000 -27.1590000  10.1530000   6.0080000 -26.0290000  10.4630000
   5.8750000 -25.1440000  11.1020000   6.1090000 -25.5670000   8.9970000
   6.3580000 -26.4510000   8.3920000   5.1180000 -25.1900000   8.7040000
   7.1650000 -24.4700000   8.7610000   6.9240000 -23.6460000   9.4480000
   8.1510000 -24.8850000   9.0180000   7.1930000 -23.9430000   7.3210000
   8.0720000 -23.0940000   7.0590000   6.3410000 -24.3710000   6.5090000
   4.7540000 -26.8960000  10.6430000   4.7760000 -28.0870000  10.3290000
   3.6790000 -26.2470000  11.1080000   3.8260000 -25.3060000  11.4120000
   2.3500000 -26.8220000  11.2620000   2.2900000 -27.7890000  10.7410000
   2.0560000 -27.0490000  12.7590000   2.3360000 -26.1470000  13.3230000
   0.9700000 -27.2080000  12.8380000   2.7860000 -28.2500000  13.3320000
   2.2290000 -29.5350000  13.1870000   1.2520000 -29.6490000  12.6940000
   2.9110000 -30.6680000  13.6670000   2.4680000 -31.6680000  13.5540000
   4.1600000 -30.5190000  14.2960000   4.8240000 -31.6210000  14.7450000
   4.3290000 -32.4730000  14.5730000   4.7170000 -29.2340000  14.4530000
   5.6900000 -29.1180000  14.9530000   4.0330000 -28.1000000  13.9720000
   4.4720000 -27.0990000  14.0960000   1.3590000 -25.8680000  10.5940000
   1.0030000 -24.8450000  11.1790000   0.9610000 -26.2220000   9.3630000
   1.4390000 -27.0000000   8.9550000   0.0000000 -25.4910000   8.5410000
   0.0980000 -24.4080000   8.7080000   0.2750000 -25.7880000   7.0510000
   0.5450000 -26.8500000   6.9510000  -0.6440000 -25.5890000   6.4810000
   1.4170000 -24.9150000   6.5030000   1.0260000 -23.8920000   6.4030000
   2.2240000 -24.9270000   7.2500000   1.9660000 -25.3880000   5.1490000
   2.6050000 -26.2620000   5.3440000   1.1040000 -25.6930000   4.5370000
   2.7780000 -24.3170000   4.3960000   3.2640000 -24.8080000   3.5400000
   2.0700000 -23.5590000   4.0300000   3.8020000 -23.6680000   5.2370000
   3.3710000 -22.9680000   5.8070000   4.2360000 -24.3530000   5.8220000
   4.4930000 -23.2420000   4.6530000  -1.4380000 -25.7880000   8.9810000
  -2.1060000 -26.6470000   8.4060000  -1.8730000 -25.0560000  10.0170000
  -1.2000000 -24.4730000  10.4710000  -3.2340000 -25.0790000  10.5410000
  -3.6130000 -26.1110000  10.5740000  -3.2430000 -24.5020000  11.9790000
  -2.9890000 -23.4530000  11.7690000  -4.2480000 -24.5530000  12.4230000
  -2.2090000 -25.0950000  12.9710000  -1.2000000 -24.8940000  12.5820000
  -2.3510000 -24.4760000  14.3760000  -3.3600000 -24.6770000  14.7650000
  -1.6030000 -24.9200000  15.0500000  -2.1910000 -23.3890000  14.3160000
  -2.2180000 -26.6320000  13.0240000  -1.9850000 -27.0350000  12.0270000
  -1.4630000 -26.9790000  13.7450000  -3.2120000 -26.9830000  13.3380000
  -4.1640000 -24.2650000   9.6240000  -3.7230000 -23.3190000   8.9730000
  -5.4450000 -24.6430000   9.6000000  -5.6960000 -25.4570000  10.1240000
  -6.4970000 -23.9280000   8.8830000  -6.2050000 -22.8920000   8.6540000
  -6.8950000 -24.6390000   7.5530000  -7.2540000 -25.6460000   7.8120000
  -7.9850000 -23.8940000   6.7580000  -7.6260000 -22.8880000   6.4980000
  -8.2130000 -24.4510000   5.8370000  -8.8950000 -23.8110000   7.3710000
  -5.6860000 -24.8710000   6.6300000  -4.9460000 -25.5020000   7.1450000
  -6.0180000 -25.3740000   5.7100000  -5.2280000 -23.9040000   6.3750000
  -7.7240000 -23.9020000   9.8010000  -8.0000000 -24.9040000  10.4580000
  -8.4390000 -22.7700000   9.8270000  -8.1060000 -21.9830000   9.3070000
  -9.6790000 -22.6260000  10.5830000  -9.7970000 -23.4690000  11.2790000
  -9.7340000 -21.2990000  11.3950000  -9.9620000 -20.4740000  10.7040000
 -10.8110000 -21.3600000  12.4930000 -10.5840000 -22.1840000  13.1850000
 -10.8240000 -20.4100000  13.0470000 -11.7960000 -21.5290000  12.0330000
  -8.3880000 -20.9580000  12.0580000  -7.6140000 -20.8490000  11.2840000
  -8.4820000 -20.0150000  12.6160000  -8.1030000 -21.7660000  12.7480000
 -10.8410000 -22.6500000   9.5750000 -10.8290000 -21.8770000   8.6150000
 -11.8010000 -23.5580000   9.8070000 -11.7100000 -24.0890000  10.6500000
 -12.9400000 -23.8390000   8.9290000 -13.1480000 -23.0760000   8.1640000
 -12.7750000 -25.2190000   8.2240000 -13.6940000 -25.4270000   7.6560000
 -11.5690000 -25.2390000   7.2720000 -10.6500000 -25.0320000   7.8390000
 -11.4910000 -26.2290000   6.7990000 -11.7010000 -24.4710000   6.4960000
 -12.7410000 -26.4340000   9.1720000 -13.6810000 -26.4810000   9.7420000
 -12.6230000 -27.3560000   8.5830000 -11.8950000 -26.3330000   9.8680000
 -14.2600000 -23.8470000   9.7260000 -14.2400000 -23.9290000  10.9550000
 -15.3820000 -23.7370000   9.0000000 -15.2820000 -23.7400000   8.0050000
 -16.7270000 -23.6140000   9.5620000 -17.2870000 -24.5480000   9.4090000
 -16.6670000 -23.3950000  10.6380000 -17.4670000 -22.4680000   8.8590000
 -16.9080000 -21.7840000   8.0000000 -18.7440000 -22.2740000   9.2260000
 -19.0960000 -22.9020000   9.9200000 -19.6640000 -21.2830000   8.6510000
 -19.6860000 -21.4300000   7.5610000 -21.0670000 -21.5650000   9.2130000
 -21.0640000 -21.4130000  10.3020000 -21.7920000 -20.8800000   8.7500000
 -21.3500000 -22.6040000   8.9890000 -19.2570000 -19.8160000   8.9070000
 -18.3410000 -19.5530000   9.6860000 -19.9470000 -18.8770000   8.2360000
 -20.5900000 -19.1920000   7.5380000 -19.7490000 -17.4320000   8.3990000
 -18.6740000 -17.2010000   8.3580000 -20.4700000 -16.6420000   7.2760000
 -20.2090000 -17.0730000   6.2980000 -21.5340000 -16.8290000   7.4860000
 -20.2100000 -15.1260000   7.2540000 -19.1630000 -14.6890000   7.7820000
 -21.0310000 -14.4210000   6.6320000 -20.2110000 -16.9770000   9.8010000
 -21.3150000 -17.3250000  10.2210000 -19.3590000 -16.1860000  10.4710000
 -18.4510000 -16.0500000  10.0740000 -19.6700000 -15.5170000  11.7320000
 -19.0270000 -14.6280000  11.8060000 -20.7240000 -15.2050000  11.6930000
 -19.4540000 -16.3940000  12.9750000 -19.7940000 -15.9480000  14.0690000
 -18.9030000 -17.6140000  12.8390000 -18.7090000 -17.9250000  11.9090000
 -18.6450000 -18.5400000  13.9520000 -19.4240000 -18.5750000  14.7280000
 -18.3840000 -19.9820000  13.4460000 -18.1500000 -20.6190000  14.3120000
 -19.6050000 -20.5470000  12.7110000 -19.8390000 -19.9100000  11.8450000
 -19.3860000 -21.5690000  12.3670000 -20.4670000 -20.5680000  13.3940000
 -17.0970000 -20.1420000  12.6180000 -16.2290000 -19.8550000  13.2300000
 -16.9920000 -21.1900000  12.3020000 -17.1490000 -19.4950000  11.7300000
 -17.4760000 -18.1250000  14.8780000 -17.3570000 -18.6850000  15.9680000
 -16.6790000 -17.1280000  14.4580000 -16.7840000 -16.8130000  13.5150000
 -15.6750000 -16.4820000  15.2950000 -15.7970000 -15.3940000  15.1920000
 -15.8640000 -16.7750000  16.3380000 -14.2380000 -16.8600000  14.9240000
 -13.3570000 -16.7140000  15.7680000 -13.9890000 -17.3230000  13.6840000
 -14.7890000 -17.4760000  13.1040000 -12.6690000 -17.7220000  13.1720000
 -12.2410000 -18.5080000  13.8120000 -12.7950000 -18.2710000  11.7340000
 -13.1210000 -17.4440000  11.0860000 -11.7990000 -18.6140000  11.4160000
 -13.7960000 -19.4330000  11.6250000 -13.6830000 -20.0370000  12.5370000
 -14.8010000 -18.9870000  11.6040000 -13.6070000 -20.3270000  10.3920000
 -12.5580000 -20.6580000  10.4100000 -14.2670000 -21.1950000  10.5370000
 -13.9120000 -19.6760000   9.0440000 -13.3880000 -18.7100000   8.9980000
 -13.5370000 -20.3350000   8.2470000 -15.3530000 -19.4600000   8.8620000
 -15.7720000 -19.2460000   9.7440000 -15.4990000 -18.6990000   8.2300000
 -15.7690000 -20.2880000   8.4870000 -11.5980000 -16.6140000  13.2440000
 -10.4410000 -16.8650000  13.5840000 -12.0710000 -15.1740000  12.9010000
 -12.9890000 -14.8860000  12.6290000 -10.9630000 -14.1380000  12.9020000
 -10.0650000 -14.5700000  12.4370000 -11.3630000 -12.8680000  12.1180000
 -12.3100000 -12.4790000  12.5210000 -10.5760000 -12.1090000  12.2370000
 -11.5230000 -13.1690000  10.7490000 -11.7810000 -12.3400000  10.2530000
 -10.5840000 -13.8130000  14.3630000  -9.3900000 -13.7420000  14.6460000
 -11.5770000 -13.6410000  15.2560000 -12.5060000 -13.6260000  14.8860000
 -11.3960000 -13.3860000  16.6840000 -10.8520000 -12.4340000  16.7750000
 -12.7760000 -13.2250000  17.3320000 -13.3290000 -14.1730000  17.2570000
 -12.6550000 -12.9540000  18.3910000 -13.3350000 -12.4330000  16.8130000
 -10.5630000 -14.4560000  17.4160000  -9.7150000 -14.0790000  18.2200000
 -10.7870000 -15.7490000  17.1060000 -11.5570000 -15.9360000  16.4960000
 -10.0190000 -16.8880000  17.6290000 -10.0220000 -16.8710000  18.7290000
 -10.6500000 -18.2180000  17.1540000 -10.9950000 -17.9660000  16.1410000
  -9.8940000 -19.0150000  17.0960000 -11.8440000 -18.7040000  17.9960000
 -12.5190000 -17.8550000  18.1820000 -12.6100000 -19.8180000  17.2560000
 -11.9350000 -20.6670000  17.0700000 -13.4580000 -20.1520000  17.8720000
 -12.9840000 -19.4320000  16.2970000 -11.3980000 -19.1390000  19.4090000
 -10.9320000 -18.2870000  19.9260000 -12.2730000 -19.4790000  19.9820000
 -10.6710000 -19.9610000  19.3280000  -8.5420000 -16.8590000  17.2130000
  -7.6770000 -17.0420000  18.0700000  -8.2890000 -16.6350000  15.9120000
  -9.0720000 -16.5330000  15.2990000  -6.9460000 -16.5770000  15.3360000
  -6.3760000 -17.4740000  15.6180000  -6.9830000 -16.4780000  13.7870000
  -7.6170000 -15.6120000  13.5440000  -5.6130000 -16.3180000  13.1050000
  -4.9790000 -17.1840000  13.3470000  -5.7500000 -16.2570000  12.0150000
  -5.1290000 -15.3980000  13.4640000  -7.5890000 -17.6430000  13.2650000
  -7.6160000 -17.5860000  12.2670000  -6.1390000 -15.3890000  15.8850000
  -5.0100000 -15.5860000  16.3210000  -6.7450000 -14.1930000  15.9040000
  -7.6490000 -14.1350000  15.4800000  -6.1220000 -12.9580000  16.3810000
  -5.0760000 -12.8650000  16.0520000  -6.9320000 -11.7200000  15.8910000
  -7.9830000 -11.9060000  16.1580000  -6.4830000 -10.3700000  16.4820000
  -5.4320000 -10.1830000  16.2150000  -7.1120000  -9.5640000  16.0770000
  -6.5830000 -10.3970000  17.5770000  -6.8970000 -11.6330000  14.3420000
  -5.9180000 -11.2160000  14.0640000  -6.9800000 -12.6610000  13.9600000
  -8.0110000 -10.7700000  13.7340000  -7.9290000  -9.7420000  14.1160000
  -7.9130000 -10.7620000  12.6380000  -8.9910000 -11.1870000  14.0110000
  -5.9070000 -12.9420000  17.9160000  -4.9620000 -12.3000000  18.3720000
  -6.7150000 -13.7070000  18.6750000  -7.5560000 -14.0390000  18.2470000
  -6.5240000 -13.9460000  20.1100000  -6.1870000 -13.0260000  20.6090000
  -7.8680000 -14.3870000  20.7400000  -8.5720000 -13.5690000  20.5290000
  -8.1720000 -15.2850000  20.1820000  -7.8760000 -14.6950000  22.2540000
  -8.8870000 -15.0480000  22.5040000  -7.1470000 -15.4920000  22.4620000
  -7.5460000 -13.4870000  23.1400000  -6.3830000 -13.1500000  23.3450000
  -8.5720000 -12.8410000  23.6950000  -8.4020000 -12.0480000  24.2800000
  -9.5070000 -13.1530000  23.5240000  -5.3540000 -14.9050000  20.4160000
  -4.7430000 -14.7640000  21.4720000  -5.0170000 -15.8270000  19.4970000
  -5.6390000 -16.0000000  18.7330000  -3.8080000 -16.6470000  19.6090000
  -3.6490000 -16.9350000  20.6590000  -3.9470000 -17.9330000  18.7590000
  -4.8550000 -18.3730000  19.1970000  -4.1130000 -17.7370000  17.6890000
  -2.7630000 -18.9200000  18.9250000  -1.8260000 -18.3520000  18.8260000
  -2.7900000 -19.6310000  20.2890000  -3.7270000 -20.1990000  20.3880000
  -1.9340000 -20.3180000  20.3620000  -2.7280000 -18.8840000  21.0940000
  -2.6540000 -19.8970000  17.7440000  -2.5010000 -19.3320000  16.8130000
  -1.8030000 -20.5750000  17.9050000  -3.5810000 -20.4850000  17.6660000
  -2.5560000 -15.8490000  19.2000000  -1.5840000 -15.8120000  19.9550000
  -2.5970000 -15.2870000  17.9810000  -3.4810000 -15.3110000  17.5150000
  -1.4560000 -14.7120000  17.2730000  -0.4960000 -15.2330000  17.4020000
  -1.7610000 -14.5520000  15.7490000  -2.7150000 -14.0110000  15.6680000
  -0.6720000 -13.7970000  14.9530000   0.2830000 -14.3380000  15.0330000
  -0.9690000 -13.7310000  13.8960000  -0.5540000 -12.7830000  15.3640000
  -2.1510000 -15.8900000  15.0590000  -2.8530000 -16.3830000  15.7480000
  -2.6820000 -15.6020000  14.1400000  -1.0140000 -16.8560000  14.7110000
  -0.4820000 -17.1440000  15.6300000  -1.4300000 -17.7540000  14.2320000
  -0.3120000 -16.3640000  14.0210000  -1.0280000 -13.3510000  17.8590000
   0.1380000 -13.2010000  18.2220000  -1.9750000 -12.3990000  17.9320000
  -2.8970000 -12.6520000  17.6390000  -1.7330000 -11.0130000  18.3480000
  -0.6640000 -10.7700000  18.2560000  -2.5370000 -10.0530000  17.4460000
  -3.6030000 -10.2490000  17.6370000  -2.2900000  -9.0300000  17.7650000
  -2.2480000 -10.2060000  15.9370000  -1.1630000 -10.1130000  15.7790000
  -2.5790000 -11.2080000  15.6260000  -2.9610000  -9.1640000  15.0690000
  -3.5860000  -8.2290000  15.5670000  -2.8630000  -9.3210000  13.7480000
  -3.3090000  -8.6690000  13.1350000  -2.3430000 -10.0900000  13.3760000
  -2.0800000 -10.7570000  19.8280000  -1.7370000  -9.6900000  20.3340000
  -2.7330000 -11.7280000  20.4930000  -3.1160000 -12.4440000  19.9090000
  -3.0800000 -11.7350000  21.9210000  -3.6320000 -12.6580000  22.1530000
  -1.8150000 -11.6710000  22.8250000  -1.3380000 -10.6950000  22.6500000
  -2.1260000 -11.7430000  23.8780000  -0.7910000 -12.7760000  22.5400000
  -1.1490000 -13.9430000  22.3960000   0.4920000 -12.4140000  22.4780000
   1.1940000 -13.1020000  22.2950000   0.7450000 -11.4570000  22.6160000
  -4.1430000 -10.6820000  22.3000000  -3.9940000 -10.0080000  23.3190000
  -5.2160000 -10.5830000  21.4950000  -5.1810000 -11.0550000  20.6030000
  -6.3840000  -9.7500000  21.7960000  -6.6420000  -9.8510000  22.8500000
  -6.0940000  -8.2580000  21.4980000  -6.9270000  -7.6580000  21.8640000
  -5.1790000  -7.9580000  22.0090000  -5.9120000  -7.9020000  20.0390000
  -6.9680000  -7.4900000  19.2390000  -6.4710000  -7.2700000  18.0240000
  -7.1660000  -6.9400000  17.2520000  -5.1620000  -7.5050000  17.9780000
  -4.5410000  -7.4230000  17.1850000  -4.7790000  -7.8960000  19.2490000
  -3.7350000  -8.1290000  19.4560000  -7.6280000 -10.2430000  21.0440000
  -7.5110000 -10.7880000  19.9470000  -8.8050000  -9.9730000  21.6280000
  -8.7870000  -9.6790000  22.5840000 -10.1050000 -10.1440000  20.9790000
 -10.1420000 -11.0910000  20.4200000 -11.1940000 -10.1740000  22.0740000
 -11.0070000 -10.9790000  22.8000000 -11.1430000  -9.2020000  22.5850000
 -12.6310000 -10.3410000  21.5980000 -12.9970000 -11.4520000  20.8100000
 -12.2330000 -12.1820000  20.5030000 -14.3190000 -11.6260000  20.4210000
 -14.5960000 -12.4890000  19.7970000 -15.2880000 -10.7160000  20.8170000
 -16.3330000 -10.8640000  20.5060000 -14.9450000  -9.6230000  21.6010000
 -15.7240000  -8.9110000  21.9110000 -13.6280000  -9.4250000  21.9940000
 -13.3640000  -8.5550000  22.6130000 -10.3650000  -9.0280000  19.9460000
  -9.8450000  -7.9200000  20.0970000 -11.1900000  -9.3440000  18.9390000
 -11.4590000 -10.3040000  18.8610000 -11.7110000  -8.3970000  17.9580000
 -11.4240000  -7.3600000  18.1890000 -11.2170000  -8.7410000  16.5210000
 -11.4450000  -9.8030000  16.3480000 -11.8590000  -7.8900000  15.4070000
 -11.6310000  -6.8280000  15.5790000 -11.4550000  -8.1980000  14.4310000
 -12.9490000  -8.0360000  15.4150000  -9.6880000  -8.6110000  16.4330000
  -9.2190000  -9.3030000  17.1470000  -9.3570000  -8.8570000  15.4130000
  -9.3920000  -7.5800000  16.6750000 -13.2420000  -8.4890000  18.0300000
 -13.8090000  -9.4850000  17.5800000 -13.8680000  -7.4620000  18.6330000
 -13.2790000  -6.7520000  19.0180000 -15.3180000  -7.3580000  18.8510000
 -15.7220000  -8.3350000  19.1560000 -15.6210000  -6.3260000  19.9690000
 -14.8240000  -6.3430000  20.7270000 -15.5850000  -5.3730000  19.4210000
 -16.9870000  -6.4680000  20.6600000 -17.5720000  -7.5730000  20.6220000
 -17.3840000  -5.4770000  21.3110000 -16.0770000  -7.0200000  17.5450000
 -17.2640000  -7.3250000  17.4320000 -15.3620000  -6.4310000  16.5730000
 -14.4330000  -6.1710000  16.8360000 -15.8130000  -6.1130000  15.2220000
 -16.7730000  -5.5770000  15.2560000 -14.7640000  -5.2060000  14.5270000
 -13.8310000  -5.7880000  14.5070000 -15.1270000  -5.0610000  13.4990000
 -14.4970000  -3.8260000  15.1800000 -13.9470000  -3.2400000  14.4290000
 -15.4870000  -3.3750000  15.3430000 -13.7130000  -3.8310000  16.5010000
 -13.8950000  -2.8590000  17.2650000 -12.9480000  -4.7950000  16.7330000
 -16.0400000  -7.3850000  14.3830000 -15.4030000  -8.4090000  14.6330000
 -16.9170000  -7.2690000  13.3740000 -17.4450000  -6.4210000  13.3330000
 -17.1830000  -8.3000000  12.3710000 -16.6220000  -9.2190000  12.5970000
 -18.6960000  -8.6270000  12.3920000 -18.9310000  -8.6870000  13.4650000
 -19.1810000  -7.7390000  11.9600000 -19.2100000  -9.8820000  11.6870000
 -18.5120000 -10.5220000  10.6340000 -17.5330000 -10.1320000  10.3180000
 -19.0620000 -11.6480000   9.9920000 -18.5130000 -12.1350000   9.1730000
 -20.3080000 -12.1550000  10.4020000 -20.8560000 -13.2300000   9.7690000
 -20.2850000 -13.5790000   9.0260000 -20.9970000 -11.5450000  11.4660000
 -21.9620000 -11.9520000  11.8030000 -20.4510000 -10.4130000  12.1000000
 -20.9920000  -9.9310000  12.9280000 -16.7050000  -7.7350000  11.0260000
 -17.2800000  -6.7600000  10.5390000 -15.6590000  -8.3600000  10.4650000
 -15.2490000  -9.1060000  10.9900000 -15.0400000  -7.9840000   9.1960000
 -15.7470000  -7.3910000   8.5980000 -13.7650000  -7.1340000   9.4430000
 -14.0210000  -6.3080000  10.1220000 -13.0710000  -7.8210000   9.9490000
 -13.0980000  -6.5710000   8.1800000 -13.7280000  -6.6150000   7.1000000
 -11.9710000  -6.0520000   8.3330000 -14.7590000  -9.2960000   8.4270000
 -13.7250000  -9.9110000   8.6900000 -15.6920000  -9.7390000   7.5440000
 -16.9310000  -9.0520000   7.1660000 -16.6850000  -8.0130000   6.9040000
 -17.6090000  -9.0600000   8.0320000 -17.4880000  -9.8380000   5.9840000
 -17.1180000  -9.4280000   5.0330000 -18.5880000  -9.8200000   5.9860000
 -16.9690000 -11.2440000   6.2220000 -16.8630000 -11.7950000   5.2760000
 -17.6250000 -11.8070000   6.9020000 -15.5880000 -11.0470000   6.8690000
 -15.4420000 -11.8140000   7.6440000 -14.4260000 -11.1100000   5.8590000
 -14.4860000 -10.4910000   4.7960000 -13.3840000 -11.8560000   6.2500000
 -13.4830000 -12.2770000   7.1520000 -12.1520000 -12.1010000   5.5030000
 -11.7070000 -11.1960000   5.0640000 -11.0970000 -12.7760000   6.4270000
 -10.1590000 -12.8580000   5.8590000 -10.8440000 -11.9910000   7.7230000
 -11.7820000 -11.9090000   8.2920000 -10.0920000 -12.5170000   8.3300000
 -10.4760000 -10.9840000   7.4770000 -11.4050000 -14.1230000   6.7550000
 -10.6900000 -14.4940000   7.3470000 -12.3830000 -13.0230000   4.2900000
 -13.2540000 -13.8920000   4.3380000 -11.5550000 -12.8430000   3.2470000
 -10.9660000 -12.0350000   3.2560000 -11.5100000 -13.7220000   2.0760000
 -12.5010000 -14.1420000   1.8480000 -10.9500000 -12.9960000   0.8140000
  -9.9950000 -12.5310000   1.0990000 -10.7250000 -13.9370000  -0.3950000
 -11.6800000 -14.4020000  -0.6820000 -10.3310000 -13.3580000  -1.2430000
 -10.0040000 -14.7210000  -0.1210000 -11.8760000 -11.8230000   0.4150000
 -12.8300000 -12.2630000   0.0880000 -12.0430000 -11.2220000   1.3210000
 -11.3180000 -10.9250000  -0.6990000 -11.1530000 -11.5250000  -1.6060000
 -12.0370000 -10.1220000  -0.9180000 -10.3650000 -10.4840000  -0.3720000
 -10.6630000 -14.9690000   2.3960000 -11.1830000 -16.0800000   2.3090000
  -9.4010000 -14.7430000   2.8020000  -9.0840000 -13.8000000   2.6970000
  -8.4480000 -15.7460000   3.2730000  -8.8530000 -16.2270000   4.1750000
  -8.1740000 -16.8390000   2.2080000  -9.1360000 -17.3240000   1.9860000
  -7.8050000 -16.3280000   1.3070000  -7.1530000 -17.9030000   2.6490000
  -6.1770000 -17.4050000   2.7400000  -7.4560000 -18.2960000   3.6310000
  -7.0460000 -19.0530000   1.6510000  -8.0800000 -19.7260000   1.4490000
  -5.9340000 -19.2530000   1.1170000  -7.1740000 -15.0130000   3.7210000
  -6.4130000 -14.5580000   2.8660000  -6.9840000 -14.9020000   5.0460000
  -7.6850000 -15.3010000   5.6360000  -5.8600000 -14.2020000   5.6770000
  -5.2860000 -13.6890000   4.8910000  -6.3010000 -13.1540000   6.7320000
  -6.7410000 -13.7510000   7.5450000  -5.3840000 -12.6640000   7.0920000
  -7.3060000 -12.0870000   6.2790000  -7.6220000 -12.0170000   5.0700000
  -7.7280000 -11.3240000   7.1740000  -4.9200000 -15.2190000   6.3400000
  -5.3800000 -16.0520000   7.1200000  -3.7170000 -14.9790000   6.2650000
  -3.2530000 -14.2730000   5.7300000  -2.9010000 -15.9550000   6.9800000
  -3.5680000 -16.6630000   7.4940000  -1.9760000 -16.7390000   6.0560000
  -1.5550000 -17.5800000   6.6270000  -2.5770000 -17.1270000   5.2210000
  -0.9220000 -15.9400000   5.5470000  -0.3430000 -16.4940000   4.9480000
  -2.1400000 -15.2330000   8.0830000  -1.8060000 -14.0430000   7.9540000
  -1.5690000 -16.0060000   8.8750000  -1.5380000 -16.9760000   8.6320000
  -0.9710000 -15.5890000  10.1440000  -0.5420000 -14.5800000  10.0510000
  -2.0570000 -15.5640000  11.2410000  -2.5170000 -16.5630000  11.2580000
  -1.5150000 -15.3940000  12.1830000  -3.1410000 -14.5090000  11.0830000
  -4.3190000 -14.8010000  10.3640000  -4.4410000 -15.7870000   9.8910000
  -5.3370000 -13.8340000  10.2510000  -6.2570000 -14.0730000   9.6980000
  -5.1830000 -12.5690000  10.8460000  -6.1700000 -11.6350000  10.7280000
  -6.9540000 -11.9600000  10.1990000  -4.0060000 -12.2710000  11.5580000
  -3.8830000 -11.2830000  12.0250000  -2.9870000 -13.2360000  11.6730000
  -2.0650000 -13.0000000  12.2250000   0.1600000 -16.5630000  10.5220000
   0.1960000 -17.6810000  10.0100000   1.0590000 -16.1230000  11.4190000
   0.9520000 -15.1890000  11.7600000   2.2310000 -16.8910000  11.8530000
   2.0390000 -17.9690000  11.7450000   3.4550000 -16.5170000  10.9820000
   4.2750000 -17.1780000  11.2990000   3.1790000 -16.7490000   9.9430000
   3.9140000 -15.0470000  11.0760000   3.0540000 -14.4100000  10.8220000
   4.2160000 -14.8560000  12.1160000   5.0840000 -14.7250000  10.1370000
   5.8780000 -15.4730000  10.2770000   4.7320000 -14.7560000   9.0950000
   5.6400000 -13.3900000  10.4070000   5.3320000 -12.6580000   9.7990000
   6.5100000 -13.0870000  11.3850000   6.9940000 -14.0290000  12.2070000
   6.7060000 -14.9800000  12.0970000   7.6410000 -13.7770000  12.9270000
   6.9020000 -11.8160000  11.5420000   6.5460000 -11.1070000  10.9330000
   7.5490000 -11.5810000  12.2670000   2.4950000 -16.6760000  13.3520000
   2.3390000 -15.5580000  13.8460000   2.9200000 -17.7510000  14.0370000
   2.9290000 -18.6240000  13.5500000   3.2780000 -17.7450000  15.4540000
   3.8120000 -16.8160000  15.7010000   2.0060000 -17.8330000  16.3300000
   1.4120000 -16.9360000  16.1000000   1.4620000 -18.7280000  15.9940000
   2.2420000 -17.9170000  17.8520000   2.9580000 -18.7280000  18.0490000
   2.6690000 -16.9620000  18.1910000   0.9360000 -18.1920000  18.6110000
   0.2040000 -17.4390000  18.2830000   0.5910000 -19.1920000  18.3110000
   1.0770000 -18.1360000  20.1400000   0.1910000 -18.6090000  20.5880000
   1.9770000 -18.6990000  20.4270000   1.1910000 -16.7500000  20.6240000
   0.3230000 -16.2750000  20.4800000   1.4110000 -16.7550000  21.6000000
   1.9170000 -16.2800000  20.1210000   4.2660000 -18.8830000  15.7320000
   3.8650000 -20.0460000  15.7360000   5.5260000 -18.5150000  16.0060000
   5.7830000 -17.5720000  15.7950000   6.5520000 -19.4110000  16.5310000
   6.4640000 -20.4120000  16.0840000   7.9340000 -18.8290000  16.1690000
   7.9730000 -18.7590000  15.0720000   7.9770000 -17.8190000  16.6020000
   9.1330000 -19.6560000  16.6740000   9.1380000 -19.6750000  17.7740000
   9.0240000 -20.6810000  16.2910000  10.4700000 -19.0930000  16.1890000
  10.6850000 -17.8830000  16.2040000  11.3880000 -19.9680000  15.7780000
  12.2750000 -19.6410000  15.4530000  11.1850000 -20.9470000  15.7970000
   6.3520000 -19.5650000  18.0480000   6.4210000 -18.5660000  18.7660000
   6.1010000 -20.8020000  18.5010000   6.0240000 -21.5380000  17.8280000
   5.8580000 -21.1200000  19.9070000   6.5640000 -20.6480000  20.6050000
   4.4050000 -20.7580000  20.3460000   4.2880000 -19.6730000  20.2070000
   3.3000000 -21.4980000  19.5650000   3.4160000 -22.5830000  19.7040000
   2.3140000 -21.1840000  19.9370000   3.3810000 -21.2560000  18.4950000
   4.1760000 -20.9250000  21.8600000   4.8650000 -20.2670000  22.4100000
   3.1380000 -20.6550000  22.1060000   4.3610000 -21.9710000  22.1470000
   6.1530000 -22.6050000  20.1730000   5.7950000 -23.4580000  19.3610000
   6.8080000 -22.8830000  21.3120000   7.1090000 -22.1150000  21.8770000
   7.1570000 -24.2350000  21.7400000   7.4890000 -24.8600000  20.8980000
   8.2730000 -24.2290000  22.8240000   7.9490000 -23.5410000  23.6180000
   8.5690000 -25.6160000  23.4350000   8.8940000 -26.3050000  22.6420000
   9.3650000 -25.5230000  24.1880000   7.6590000 -26.0100000  23.9110000
   9.5780000 -23.6400000  22.2580000   9.4000000 -22.6070000  21.9250000
  10.3520000 -23.6450000  23.0390000   9.9150000 -24.2460000  21.4040000
   5.9160000 -24.9770000  22.2720000   5.2710000 -24.4990000  23.2050000
   5.6280000 -26.1330000  21.6560000   6.2100000 -26.3790000  20.8810000
   4.5510000 -27.0430000  22.0290000   4.1010000 -26.7840000  22.9990000
   3.4350000 -27.1110000  20.9390000   3.9270000 -27.3320000  19.9800000
   2.3500000 -28.1810000  21.2210000   1.8580000 -27.9600000  22.1800000
   1.6030000 -28.1680000  20.4140000   2.8180000 -29.1750000  21.2700000
   2.7750000 -25.7310000  20.7130000   2.1080000 -25.5420000  21.5670000
   3.5790000 -24.9800000  20.7030000   1.9740000 -25.6390000  19.4100000
   1.1690000 -26.3890000  19.4200000   1.5360000 -24.6340000  19.3180000
   2.6400000 -25.8280000  18.5550000   5.1950000 -28.4270000  22.1950000
   5.6160000 -29.0270000  21.2050000   5.2720000 -28.8930000  23.4530000
   5.0850000 -28.2210000  24.1690000   5.7960000 -30.2100000  23.8520000
   5.8110000 -30.2530000  24.9510000   4.9590000 -31.4090000  23.3190000
   5.2220000 -31.4750000  22.2530000   5.2810000 -32.3270000  23.8330000
   3.4400000 -31.2500000  23.4610000   2.9990000 -30.5960000  24.4310000
   2.7280000 -31.8390000  22.6190000   7.3080000 -30.3820000  23.5770000
   7.7600000 -31.4940000  23.3040000   8.0630000 -29.2720000  23.6590000
   7.5870000 -28.4200000  23.8780000   9.5120000 -29.2240000  23.4540000
   9.9200000 -28.4110000  24.0720000   9.9380000 -30.1830000  23.7840000
   9.9030000 -28.9810000  21.9850000  11.0640000 -28.6640000  21.7300000
   8.9590000 -29.0940000  21.0330000   8.0620000 -29.4240000  21.3270000
   9.1640000 -28.8140000  19.6120000  10.2250000 -28.9230000  19.3420000
   8.3390000 -29.8280000  18.7910000   8.6800000 -30.8300000  19.0920000
   7.2880000 -29.6950000  19.0880000   8.4640000 -29.6800000  17.2580000
   8.1430000 -28.6690000  16.9660000   9.5280000 -29.8120000  17.0110000
   7.6320000 -30.7170000  16.5010000   6.4640000 -30.9230000  16.8950000
   8.1600000 -31.2770000  15.5170000   8.7470000 -27.3660000  19.3170000
   7.6240000 -26.9890000  19.6530000   9.6390000 -26.5970000  18.6700000
  10.5490000 -26.9820000  18.5150000   9.3800000 -25.2260000  18.2230000
   8.8540000 -24.6700000  19.0130000  10.6970000 -24.4800000  17.8850000
  11.1880000 -25.0530000  17.0850000  10.5190000 -23.0190000  17.4350000
  10.0280000 -22.4460000  18.2350000  11.5040000 -22.5790000  17.2190000
   9.8970000 -22.9880000  16.5280000  11.5280000 -24.4720000  19.0300000
  12.3800000 -23.9930000  18.8210000   8.4520000 -25.2400000  16.9900000
   8.9040000 -25.5040000  15.8760000   7.1550000 -25.0160000  17.2440000
   6.9190000 -24.7370000  18.1750000   6.0730000 -25.1930000  16.2800000
   6.4100000 -25.8480000  15.4630000   4.8430000 -25.8330000  16.9480000
   4.5330000 -25.2940000  17.8550000   3.9890000 -25.9140000  16.2600000
   5.2270000 -27.5260000  17.4740000   4.0540000 -27.7820000  17.9730000
   5.7060000 -23.8350000  15.6670000   5.2420000 -22.9470000  16.3850000
   5.9150000 -23.7080000  14.3480000   6.3740000 -24.4660000  13.8860000
   5.5750000 -22.5210000  13.5640000   5.5880000 -21.6290000  14.2070000
   6.6030000 -22.3240000  12.4250000   6.8250000 -23.3580000  12.1210000
   6.1600000 -21.7800000  11.5780000   7.9100000 -21.6230000  12.8600000
   7.6420000 -20.6390000  13.2730000   8.6960000 -22.4220000  13.9120000
   8.9650000 -23.4060000  13.5000000   9.6120000 -21.8750000  14.1810000
   8.0740000 -22.5580000  14.8090000   8.7960000 -21.2890000  11.6430000
   8.2490000 -20.6190000  10.9630000   9.7160000 -20.7920000  11.9840000
   9.0560000 -22.2170000  11.1120000   4.1460000 -22.6930000  13.0350000
   3.9350000 -23.4220000  12.0660000   3.1930000 -22.0440000  13.7240000
   3.5010000 -21.4780000  14.4890000   1.7570000 -22.1700000  13.4900000
   1.5190000 -23.1890000  13.1500000   0.9810000 -21.8920000  14.7990000
   1.1930000 -20.8240000  14.9540000  -0.1000000 -22.0330000  14.6530000
   1.4410000 -22.6930000  16.0370000   2.4350000 -22.3340000  16.3410000
   0.4520000 -22.5180000  17.2060000  -0.5420000 -22.8770000  16.9020000
   0.8020000 -23.0970000  18.0730000   0.3890000 -21.4540000  17.4780000
   1.7000000 -24.1770000  15.7380000   2.4870000 -24.2660000  14.9750000
   2.0230000 -24.6860000  16.6580000   0.7760000 -24.6430000  15.3670000
   1.3220000 -21.2360000  12.3540000   0.9520000 -20.0890000  12.6070000
   1.3940000 -21.7590000  11.1200000   1.8190000 -22.6620000  11.0560000
   1.0160000 -21.0810000   9.8820000   1.2070000 -20.0010000   9.9650000
   1.8570000 -21.6450000   8.7070000   2.9160000 -21.6480000   9.0040000
   1.5020000 -22.6810000   8.6090000   1.7050000 -20.9230000   7.3620000
   1.1200000 -19.8180000   7.3340000   2.2460000 -21.4790000   6.3800000
  -0.5120000 -21.2130000   9.7000000  -0.9740000 -22.0500000   8.9250000
  -1.2580000 -20.4160000  10.4830000  -0.7550000 -19.7620000  11.0480000
  -2.7150000 -20.4680000  10.6110000  -3.1020000 -21.4880000  10.4670000
  -3.1660000 -19.9340000  12.0030000  -2.6120000 -18.9990000  12.1730000
  -4.6840000 -19.6680000  12.1540000  -5.2390000 -20.6030000  11.9850000
  -4.8930000 -19.2960000  13.1680000  -5.0000000 -18.9160000  11.4160000
  -2.7150000 -20.9100000  13.1110000  -3.5360000 -21.6260000  13.2660000
  -1.8300000 -21.4430000  12.7330000  -2.3730000 -20.2340000  14.4360000
  -3.2570000 -19.7010000  14.8160000  -2.0630000 -20.9950000  15.1680000
  -1.5520000 -19.5180000  14.2820000  -3.4050000 -19.6690000   9.4960000
  -2.9980000 -18.5420000   9.2160000  -4.4490000 -20.2740000   8.9090000
  -4.6820000 -21.1930000   9.2280000  -5.2080000 -19.7150000   7.7970000
  -4.7900000 -18.7470000   7.4820000  -5.1170000 -20.7020000   6.6110000
  -4.0380000 -20.9130000   6.5730000  -5.6650000 -21.6330000   6.8190000
  -5.5770000 -20.1260000   5.2560000  -6.6120000 -19.7700000   5.3650000
  -4.6760000 -18.9580000   4.7940000  -3.6410000 -19.3140000   4.6840000
  -5.0360000 -18.5770000   3.8270000  -4.7080000 -18.1510000   5.5410000
  -5.6830000 -21.2430000   4.1950000  -6.4130000 -21.9960000   4.5270000
  -6.0120000 -20.8110000   3.2380000  -4.7000000 -21.7180000   4.0630000
  -6.6540000 -19.4390000   8.2420000  -7.4250000 -20.3730000   8.4600000
  -6.9820000 -18.1440000   8.3560000  -6.2120000 -17.5120000   8.2650000
  -8.3000000 -17.5910000   8.6610000  -8.8790000 -18.2890000   9.2830000
  -8.1160000 -16.2700000   9.4410000  -7.6110000 -16.5230000  10.3850000
  -7.4270000 -15.7030000   8.7980000  -9.3560000 -15.4170000   9.7380000
 -10.5060000 -15.9190000   9.6910000  -9.1100000 -14.2390000  10.0730000
  -9.0650000 -17.4170000   7.3370000  -8.9880000 -16.3620000   6.7080000
  -9.7640000 -18.4860000   6.9350000  -9.7350000 -19.2890000   7.5310000
 -10.5240000 -18.5740000   5.6890000 -10.0720000 -18.0390000   4.8410000
 -10.7270000 -20.0630000   5.2860000 -11.1780000 -20.0840000   4.2830000
  -9.4100000 -20.8530000   5.2720000  -8.9590000 -20.8330000   6.2750000
  -9.6100000 -21.8950000   4.9810000  -8.7170000 -20.3980000   4.5490000
 -11.6870000 -20.7440000   6.0770000 -11.7660000 -21.6910000   5.7650000
 -11.9030000 -17.8880000   5.7980000 -12.3530000 -17.5650000   6.8990000
 -12.5520000 -17.6970000   4.6380000 -12.0400000 -17.8400000   3.7910000
 -13.9520000 -17.2940000   4.5420000 -14.1650000 -16.4550000   5.2210000
 -14.2510000 -16.8490000   3.1050000 -14.0520000 -17.6810000   2.4140000
 -15.3070000 -16.5510000   3.0250000 -13.6090000 -15.9950000   2.8440000
 -14.8890000 -18.4540000   4.9070000 -14.7020000 -19.5690000   4.4160000
 -15.9140000 -18.1460000   5.7130000 -15.9230000 -17.2430000   6.1430000
 -17.0180000 -19.0580000   5.9970000 -16.6470000 -20.0930000   5.9580000
 -17.4070000 -18.8470000   7.0040000 -18.1560000 -18.8960000   4.9780000
 -19.0580000 -19.7320000   4.9510000 -18.1150000 -17.8320000   4.1570000
 -17.3470000 -17.2080000   4.3000000 -19.1020000 -17.4920000   3.1360000
 -20.1230000 -17.6270000   3.5220000 -18.9160000 -16.0130000   2.7410000
 -17.8700000 -15.8700000   2.4310000 -19.5820000 -15.7980000   1.8920000
 -19.2420000 -15.0590000   3.9030000 -20.2840000 -15.2560000   4.1970000
 -18.5740000 -15.2920000   4.7450000 -19.1020000 -13.5750000   3.5650000
 -18.4960000 -13.1970000   2.5640000 -19.6560000 -12.7240000   4.4300000
 -19.5990000 -11.7390000   4.2650000 -20.1260000 -13.0750000   5.2400000
 -18.9960000 -18.3980000   1.9020000 -17.8880000 -18.7290000   1.4750000
 -20.1650000 -18.7410000   1.3350000 -20.9950000 -18.4610000   1.8170000
 -20.3040000 -19.5870000   0.1460000 -19.6060000 -20.4350000   0.2030000
 -21.7460000 -20.1390000   0.0570000 -22.3970000 -19.2780000  -0.1560000
 -21.7630000 -20.8310000  -0.7980000 -22.2550000 -20.8700000   1.3210000
 -22.3690000 -20.1430000   2.1380000 -23.2410000 -21.2760000   1.0510000
 -21.3420000 -22.0100000   1.7770000 -21.1440000 -22.9540000   0.9810000
 -20.8150000 -21.9030000   2.9050000 -19.8840000 -18.8990000  -1.1690000
 -19.6810000 -19.5950000  -2.1630000 -19.7040000 -17.5650000  -1.1370000
 -20.0780000 -17.1020000  -0.3340000 -19.0980000 -16.7470000  -2.1930000
 -19.6370000 -16.8630000  -3.1450000 -19.1910000 -15.2650000  -1.7480000
 -20.2650000 -15.0600000  -1.6310000 -18.7010000 -15.2230000  -0.7640000
 -18.5630000 -14.2040000  -2.6830000 -18.7010000 -13.2350000  -2.1800000
 -17.4880000 -14.4250000  -2.7620000 -19.1760000 -14.1430000  -4.0860000
 -18.4320000 -13.7450000  -5.0080000 -20.3760000 -14.4740000  -4.2160000
 -17.6480000 -17.1620000  -2.5250000 -17.2270000 -17.0280000  -3.6730000
 -16.9290000 -17.6730000  -1.5120000 -17.3940000 -17.7150000  -0.6280000
 -15.5260000 -18.0770000  -1.5770000 -15.1040000 -17.8740000  -2.5720000
 -14.7410000 -17.2570000  -0.5320000 -15.0810000 -17.5440000   0.4740000
 -13.6880000 -17.5500000  -0.6600000 -14.8730000 -15.7510000  -0.7010000
 -14.2830000 -15.1110000  -1.8100000 -13.6860000 -15.6960000  -2.5240000
 -14.4560000 -13.7270000  -2.0040000 -14.0010000 -13.2330000  -2.8750000
 -15.2180000 -12.9760000  -1.0860000 -15.3930000 -11.6370000  -1.2750000
 -14.9370000 -11.2950000  -2.0970000 -15.7940000 -13.6090000   0.0320000
 -16.3770000 -13.0220000   0.7570000 -15.6230000 -14.9930000   0.2230000
 -16.0750000 -15.4880000   1.0950000 -15.3600000 -19.5980000  -1.3840000
 -14.2770000 -20.0410000  -0.9970000 -16.4150000 -20.3810000  -1.6830000
 -17.2820000 -19.9130000  -1.8530000 -16.4170000 -21.8470000  -1.6160000
 -15.9560000 -22.1800000  -0.6740000 -17.8630000 -22.3800000  -1.6720000
 -17.8370000 -23.4560000  -1.4450000 -18.4480000 -21.8570000  -0.9010000
 -18.4650000 -22.1800000  -2.9360000 -19.3980000 -22.5410000  -2.9210000
 -15.5010000 -22.5500000  -2.6380000 -15.1400000 -23.7030000  -2.4060000
 -15.1150000 -21.8490000  -3.7190000 -15.5580000 -20.9640000  -3.8630000
 -14.1600000 -22.3200000  -4.7260000 -14.4800000 -23.3230000  -5.0460000
 -14.2160000 -21.3770000  -5.9370000 -13.8900000 -20.3710000  -5.6340000
 -13.5520000 -21.7550000  -6.7280000 -15.2470000 -21.3290000  -6.3170000
 -12.7150000 -22.4430000  -4.2040000 -11.9520000 -23.2390000  -4.7510000
 -12.3710000 -21.6730000  -3.1550000 -13.0500000 -21.0090000  -2.8430000
 -11.0620000 -21.6890000  -2.4970000 -10.2620000 -21.7000000  -3.2520000
 -10.8950000 -20.4290000  -1.6180000 -11.5990000 -20.5270000  -0.7790000
  -9.8640000 -20.4390000  -1.2340000 -11.1550000 -19.1020000  -2.3530000
 -10.5120000 -19.0960000  -3.2450000 -12.2100000 -19.1060000  -2.6630000
 -10.8270000 -17.6120000  -1.3720000  -9.0160000 -17.5860000  -1.4170000
  -8.6760000 -17.5140000  -2.4610000  -8.6460000 -16.7180000  -0.8520000
  -8.6240000 -18.5100000  -0.9660000 -10.8220000 -22.9560000  -1.6550000
  -9.6650000 -23.3320000  -1.4730000 -11.9090000 -23.5760000  -1.1580000
 -12.7810000 -23.1350000  -1.3720000 -11.9190000 -24.7390000  -0.2660000
 -11.3550000 -24.5210000   0.6530000 -13.3720000 -25.0780000   0.1180000
 -13.9180000 -25.2970000  -0.8110000 -13.3470000 -25.9790000   0.7490000
 -14.0820000 -23.9420000   0.8740000 -13.4940000 -23.7290000   1.7790000
 -14.0810000 -23.0580000   0.2200000 -15.5240000 -24.2820000   1.2700000
 -16.0760000 -24.6370000   0.3870000 -15.5200000 -25.0670000   2.0400000
 -16.2080000 -23.0990000   1.8080000 -15.6080000 -22.3560000   2.1040000
 -17.5350000 -22.9440000   1.9430000 -18.3970000 -23.9050000   1.5820000
 -18.0530000 -24.7630000   1.2010000 -19.3800000 -23.7590000   1.6950000
 -18.0120000 -21.7970000   2.4380000 -17.3800000 -21.0690000   2.7020000
 -18.9990000 -21.6730000   2.5420000 -11.1870000 -25.9630000  -0.8320000
 -10.3240000 -26.5070000  -0.1460000 -11.4910000 -26.3340000  -2.0860000
 -12.2850000 -25.8950000  -2.5070000 -10.8660000 -27.4640000  -2.7870000
 -10.7820000 -28.3060000  -2.0840000 -11.6680000 -27.9330000  -4.0280000
 -11.5990000 -27.0700000  -4.7070000 -11.1690000 -28.8000000  -4.4860000
 -13.1460000 -28.2680000  -3.7740000 -13.5070000 -28.5560000  -2.6110000
 -13.8890000 -28.3130000  -4.7780000  -9.3680000 -27.2760000  -3.1230000
  -8.7480000 -28.2430000  -3.5630000  -8.8090000 -26.0750000  -2.8840000
  -9.4390000 -25.3280000  -2.6720000  -7.3860000 -25.7650000  -3.0220000
  -6.8600000 -26.5880000  -3.5280000  -7.2250000 -24.4810000  -3.8710000
  -7.6580000 -24.7150000  -4.8550000  -7.8380000 -23.7140000  -3.3740000
  -5.7830000 -23.9490000  -4.0550000  -5.8110000 -23.0480000  -4.6860000
  -5.4090000 -23.6840000  -3.0550000  -4.8190000 -24.9600000  -4.6870000
  -5.1840000 -25.6900000  -5.6050000  -3.5720000 -24.9870000  -4.2130000
  -2.9090000 -25.6300000  -4.5950000  -3.3070000 -24.3630000  -3.4780000
  -6.6870000 -25.6680000  -1.6520000  -5.6300000 -26.2830000  -1.4920000
  -7.2610000 -24.9100000  -0.6940000  -8.0540000 -24.3570000  -0.9490000
  -6.6450000 -24.6800000   0.6220000  -5.5610000 -24.5440000   0.4900000
  -7.2210000 -23.4220000   1.3280000  -6.4670000 -23.0800000   2.0520000
  -7.2430000 -22.7340000   0.4700000  -8.5980000 -23.4470000   1.9970000
  -8.8850000 -24.3070000   3.0820000  -8.1180000 -25.0190000   3.4210000
 -10.1350000 -24.2590000   3.7270000 -10.3740000 -24.9890000   4.5140000
 -11.0930000 -23.3070000   3.3360000 -12.2710000 -23.2150000   4.0160000
 -12.3410000 -23.8710000   4.7680000 -10.8120000 -22.4270000   2.2750000
 -11.5550000 -21.6760000   1.9690000  -9.5760000 -22.5090000   1.6040000
  -9.3620000 -21.8360000   0.7610000  -6.6050000 -25.9300000   1.5180000
  -5.7170000 -26.0170000   2.3640000  -7.5430000 -26.8720000   1.3190000
  -8.2880000 -26.6550000   0.6880000  -7.6090000 -28.1310000   2.0640000
  -7.3720000 -27.9550000   3.1240000  -9.0270000 -28.7250000   1.9690000
  -9.2760000 -28.8280000   0.9030000  -9.0060000 -29.7200000   2.4380000
 -10.0890000 -27.8550000   2.6610000  -9.9430000 -27.9630000   3.7460000
  -9.8980000 -26.8120000   2.3670000 -11.7950000 -28.2870000   2.2450000
 -12.6670000 -27.0370000   3.2250000 -12.3620000 -26.0330000   2.8940000
 -13.7520000 -27.1540000   3.0880000 -12.4170000 -27.1640000   4.2890000
  -6.5250000 -29.1400000   1.6400000  -6.1480000 -29.9790000   2.4560000
  -5.9960000 -29.0130000   0.4100000  -6.4590000 -28.4010000  -0.2310000
  -4.8270000 -29.7600000  -0.0640000  -4.9230000 -30.8180000   0.2200000
  -4.7090000 -29.6710000  -1.6020000  -4.4610000 -28.6290000  -1.8510000
  -3.8790000 -30.3270000  -1.9050000  -5.9860000 -30.0840000  -2.3470000
  -6.2040000 -31.1270000  -2.0730000  -6.7990000 -29.4340000  -1.9920000
  -5.8700000 -29.9690000  -3.8720000  -5.7670000 -28.9110000  -4.1560000
  -4.9890000 -30.5280000  -4.2190000  -7.0630000 -30.5180000  -4.5270000
  -7.7460000 -29.8460000  -4.8120000  -7.3060000 -31.8180000  -4.7620000
  -8.4840000 -32.1790000  -5.2850000  -9.1690000 -31.4820000  -5.4950000
  -8.6740000 -33.1440000  -5.4630000  -6.3960000 -32.7600000  -4.4770000
  -5.5160000 -32.4980000  -4.0810000  -6.6010000 -33.7210000  -4.6610000
  -3.5240000 -29.2670000   0.5900000  -2.6530000 -30.0840000   0.8850000
  -3.4330000 -27.9430000   0.8060000  -4.2200000 -27.3930000   0.5260000
  -2.2790000 -27.2570000   1.3900000  -1.3350000 -27.6880000   1.0260000
  -2.3100000 -25.7460000   1.0230000  -3.2530000 -25.3490000   1.4270000
  -1.1310000 -24.9060000   1.5530000  -0.1870000 -25.3020000   1.1490000
  -1.2540000 -23.8600000   1.2360000  -1.1090000 -24.9560000   2.6520000
  -2.3340000 -25.6090000  -0.3870000  -2.3540000 -24.6390000  -0.6280000
  -2.2270000 -27.3800000   2.9280000  -1.1330000 -27.4670000   3.4870000
  -3.4040000 -27.3880000   3.5750000  -4.2310000 -27.3690000   3.0140000
  -3.5530000 -27.4220000   5.0250000  -2.8010000 -26.7610000   5.4810000
  -4.5600000 -27.0710000   5.2930000  -3.3610000 -28.8420000   5.5640000
  -3.8180000 -29.8120000   4.9590000  -2.7290000 -28.9300000   6.7420000
  -2.3370000 -28.0790000   7.0930000  -2.5420000 -30.1510000   7.5200000
  -2.5750000 -31.0320000   6.8620000  -1.1660000 -30.1100000   8.2210000
  -1.1510000 -29.2010000   8.8410000  -1.1130000 -30.9970000   8.8700000
   0.0410000 -30.0990000   7.2670000   0.0240000 -31.0380000   6.6950000
  -0.0420000 -29.2470000   6.5760000   1.3560000 -29.9990000   8.0430000
   1.9270000 -31.0680000   8.3510000   1.7580000 -28.8530000   8.3360000
  -3.6710000 -30.2950000   8.5550000  -4.3300000 -31.3340000   8.5810000
  -3.8610000 -29.2480000   9.3780000  -3.2860000 -28.4440000   9.2280000
  -4.8390000 -29.2070000  10.4620000  -5.1060000 -30.2330000  10.7540000
  -4.4070000 -28.6810000  11.3270000  -6.1030000 -28.4710000  10.0130000
  -6.0390000 -27.5810000   9.1650000  -7.2450000 -28.8370000  10.6180000
  -7.1810000 -29.6010000  11.2600000  -8.5670000 -28.2760000  10.3380000
  -8.4610000 -27.2810000   9.8820000  -9.3430000 -29.1860000   9.3620000
  -9.1720000 -30.1660000   9.8320000 -10.4210000 -29.0410000   9.1970000
  -8.6990000 -29.2450000   7.9890000  -7.7500000 -30.2470000   7.6990000
  -7.6210000 -31.0950000   8.3870000  -6.9810000 -30.1640000   6.5500000
  -6.2480000 -30.9520000   6.3240000  -7.1340000 -29.0910000   5.6850000
  -6.5120000 -29.0330000   4.7790000  -8.0630000 -28.0930000   5.9540000
  -8.1810000 -27.2510000   5.2560000  -8.8400000 -28.1570000   7.1010000
  -9.5660000 -27.3600000   7.3190000  -9.3200000 -28.0420000  11.6530000
  -9.8600000 -28.9860000  12.2270000  -9.3250000 -26.7830000  12.1150000
  -8.7750000 -26.1130000  11.6170000 -10.0160000 -26.3480000  13.3250000
 -10.0140000 -27.1510000  14.0770000  -9.2890000 -25.1150000  13.9160000
  -8.2310000 -25.3750000  13.7620000  -9.5190000 -24.1840000  13.3770000
  -9.5550000 -24.9150000  15.4240000 -10.6350000 -25.0110000  15.6080000
  -8.7940000 -25.9660000  16.2660000  -7.7140000 -25.8700000  16.0830000
  -9.0010000 -25.8010000  17.3340000  -9.1260000 -26.9750000  15.9800000
  -9.2630000 -23.4660000  15.8740000  -9.9080000 -22.7720000  15.3160000
  -9.4650000 -23.3680000  16.9510000  -8.2080000 -23.2260000  15.6760000
 -11.4840000 -26.0630000  12.9690000 -11.7770000 -25.0240000  12.3780000
 -12.3640000 -27.0220000  13.2890000 -11.9890000 -27.8280000  13.7470000
 -13.7880000 -27.0120000  12.9590000 -13.9440000 -26.5080000  11.9940000
 -14.3260000 -28.4530000  12.8550000 -13.9320000 -29.1060000  13.6480000
 -15.4250000 -28.4910000  12.8610000 -13.8050000 -29.1980000  11.2860000
 -14.3820000 -30.3460000  11.4820000 -14.5650000 -26.1930000  14.0000000
 -15.0110000 -26.7470000  15.0030000 -14.6950000 -24.8840000  13.7420000
 -14.3280000 -24.5530000  12.8730000 -15.3230000 -23.9190000  14.6410000
 -15.2450000 -24.2300000  15.6930000 -14.6730000 -22.5130000  14.4880000
 -14.8010000 -22.2080000  13.4390000 -15.2790000 -21.4380000  15.4130000
 -15.1510000 -21.7420000  16.4620000 -14.7680000 -20.4780000  15.2440000
 -16.3510000 -21.3260000  15.1920000 -13.1560000 -22.5600000  14.7400000
 -12.6850000 -23.2410000  14.0160000 -12.7330000 -21.5510000  14.6230000
 -12.9640000 -22.9210000  15.7610000 -16.8310000 -23.7950000  14.3410000
 -17.2170000 -23.6730000  13.1790000 -17.6400000 -23.7750000  15.4110000
 -17.2370000 -24.0690000  16.2780000 -19.0640000 -23.4410000  15.3860000
 -19.2950000 -22.8450000  14.4910000 -19.9140000 -24.7360000  15.3500000
 -20.9520000 -24.5690000  15.0270000 -19.3910000 -25.3480000  14.6000000
 -19.9830000 -25.5690000  16.6220000 -18.9800000 -26.5180000  16.9060000
 -18.1820000 -26.7110000  16.1740000 -18.9990000 -27.2100000  18.1100000
 -18.2270000 -27.9660000  18.3150000 -19.9850000 -26.9520000  19.0530000
 -19.9900000 -27.5060000  20.0030000 -20.9620000 -26.0000000  18.8000000
 -21.7360000 -25.7990000  19.5550000 -20.9650000 -25.3020000  17.6010000
 -21.7340000 -24.5380000  17.4110000 -19.3750000 -22.5520000  16.6010000
 -18.6950000 -22.6510000  17.6240000 -20.4230000 -21.7220000  16.4760000
 -20.8400000 -21.6270000  15.5720000 -20.9690000 -20.9310000  17.5780000
 -20.1870000 -20.6490000  18.2990000 -21.6010000 -19.6530000  17.0160000
 -22.3930000 -19.9200000  16.3000000 -22.0340000 -19.0650000  17.8380000
 -20.8310000 -19.0560000  16.5050000 -22.0110000 -21.7600000  18.3380000
 -22.9290000 -22.2890000  17.7100000 -21.8540000 -21.8580000  19.6690000
 -21.0480000 -21.4170000  20.0640000 -22.6900000 -22.6910000  20.5430000
 -22.8530000 -23.6950000  20.1250000 -22.1020000 -22.8160000  21.9820000
 -22.8700000 -23.2280000  22.6530000 -20.8780000 -23.7500000  21.9700000
 -20.1090000 -23.3390000  21.2990000 -20.4690000 -23.8330000  22.9880000
 -21.1800000 -24.7460000  21.6150000 -21.7300000 -21.4900000  22.6970000
 -21.3250000 -21.7930000  23.6740000 -20.9260000 -21.0500000  22.0880000
 -22.8430000 -20.4520000  22.9030000 -23.6470000 -20.8920000  23.5110000
 -22.4330000 -19.5710000  23.4190000 -23.2480000 -20.1480000  21.9260000
 -24.1880000 -22.3160000  20.6240000 -24.9870000 -23.1700000  21.0040000
 -24.5490000 -21.0800000  20.2370000 -23.8120000 -20.4320000  20.0430000
 -25.9310000 -20.5970000  20.1830000 -26.5840000 -21.2590000  20.7700000
 -26.0190000 -19.1650000  20.7710000 -25.2180000 -19.0440000  21.5150000
 -25.8720000 -18.4440000  19.9530000 -27.3630000 -18.8710000  21.4470000
 -27.8070000 -19.6250000  22.3050000 -28.0210000 -17.7750000  21.0690000
 -28.9010000 -17.5530000  21.4900000 -27.6320000 -17.1790000  20.3660000
 -26.5210000 -20.6620000  18.7570000 -27.5330000 -20.0110000  18.4960000
 -25.9090000 -21.4590000  17.8650000 -25.0330000 -21.8640000  18.1280000
 -26.3920000 -21.6780000  16.5080000 -27.4850000 -21.5560000  16.4720000
 -25.7470000 -20.6510000  15.5470000 -25.8690000 -19.6450000  15.9740000
 -24.6760000 -20.8820000  15.4540000 -26.3740000 -20.6700000  14.1510000
 -25.7330000 -21.0780000  13.1890000 -27.6290000 -20.2300000  14.0340000
 -28.0730000 -20.2270000  13.1380000 -28.1190000 -19.9050000  14.8430000
 -26.1320000 -23.1370000  16.1100000 -25.0050000 -23.4910000  15.7620000
 -27.2060000 -23.9430000  16.1440000 -28.0430000 -23.5550000  16.5300000
 -27.2200000 -25.3470000  15.7260000 -26.3980000 -25.8940000  16.2110000
 -28.5650000 -26.0250000  16.1140000 -29.3560000 -25.3750000  15.7120000
 -28.7800000 -27.4670000  15.6110000 -27.9900000 -28.1180000  16.0130000
 -29.7610000 -27.8310000  15.9490000 -28.7430000 -27.4820000  14.5120000
 -28.6580000 -26.0670000  17.5250000 -29.5190000 -26.5010000  17.7890000
 -26.9690000 -25.5320000  14.2120000 -26.4220000 -26.5650000  13.8360000
 -27.3040000 -24.5280000  13.3800000 -27.8590000 -23.7860000  13.7550000
 -27.0420000 -24.5400000  11.9370000 -27.3820000 -25.4900000  11.4980000
 -27.8040000 -23.3800000  11.2570000 -28.8720000 -23.5660000  11.4450000
 -27.4940000 -22.4640000  11.7810000 -27.5710000 -23.2100000   9.7410000
 -28.1900000 -22.3620000   9.4110000 -26.5080000 -22.9640000   9.6020000
 -27.9230000 -24.4580000   8.9060000 -27.2390000 -25.2620000   9.2140000
 -28.9560000 -24.7410000   9.1560000 -27.8060000 -24.2380000   7.3910000
 -28.1200000 -25.1630000   6.8860000 -28.4850000 -23.4190000   7.1110000
 -26.4320000 -23.8980000   6.9830000 -26.1590000 -23.0390000   7.4170000
 -25.8100000 -24.6280000   7.2670000 -26.3960000 -23.7960000   5.9890000
 -25.5380000 -24.5660000  11.5970000 -25.1400000 -25.3720000  10.7620000
 -24.7240000 -23.7400000  12.2780000 -25.1480000 -23.0250000  12.8340000
 -23.2620000 -23.7330000  12.1310000 -22.9870000 -23.7480000  11.0660000
 -22.6810000 -22.4560000  12.7720000 -21.6640000 -22.3270000  12.3740000
 -23.3100000 -21.6140000  12.4470000 -22.6340000 -22.4910000  14.1870000
 -22.2480000 -21.6340000  14.5280000 -22.5790000 -25.0190000  12.6420000
 -21.5100000 -25.3680000  12.1430000 -23.2260000 -25.7010000  13.6020000
 -23.9850000 -25.2140000  14.0340000 -22.8340000 -26.9970000  14.1500000
 -21.7420000 -27.0670000  14.2650000 -23.4850000 -27.1320000  15.5400000
 -23.0150000 -26.3720000  16.1820000 -24.5630000 -26.9270000  15.4600000
 -23.3470000 -28.4570000  16.2640000 -22.0900000 -28.8680000  16.7470000
 -21.2020000 -28.2400000  16.5820000 -21.9730000 -30.0670000  17.4320000
 -20.9950000 -30.3730000  17.8330000 -23.0840000 -30.8810000  17.6140000
 -22.9780000 -31.8280000  18.1640000 -24.3210000 -30.5070000  17.1070000
 -25.1910000 -31.1660000  17.2460000 -24.4620000 -29.3050000  16.4250000
 -25.4410000 -29.0180000  16.0130000 -23.1280000 -28.1780000  13.2010000
 -22.3670000 -29.1450000  13.1990000 -24.1860000 -28.0550000  12.3780000
 -24.8130000 -27.2990000  12.5680000 -24.5130000 -28.9700000  11.2800000
 -24.4080000 -30.0140000  11.6110000 -25.9700000 -28.7400000  10.8290000
 -26.0880000 -27.6630000  10.6400000 -26.1130000 -29.2940000   9.8900000
 -27.0200000 -29.1990000  11.8630000 -26.9850000 -30.2970000  11.9120000
 -26.7080000 -28.7790000  12.8310000 -28.4510000 -28.7470000  11.5480000
 -29.3540000 -29.2230000  12.2700000 -28.6330000 -27.9310000  10.6170000
 -23.5510000 -28.8100000  10.0890000 -23.1710000 -29.8180000   9.4950000
 -23.1470000 -27.5580000   9.7940000 -23.6400000 -26.8270000  10.2660000
 -22.1870000 -27.1860000   8.7430000 -22.4740000 -27.7030000   7.8150000
 -22.1350000 -25.6620000   8.4650000 -21.7610000 -25.2380000   9.4090000
 -21.4130000 -25.4570000   7.6610000 -23.4840000 -25.0220000   8.1170000
 -24.3770000 -25.7450000   7.6230000 -23.5870000 -23.7870000   8.2810000
 -20.7660000 -27.7440000   8.9430000 -20.0200000 -27.8040000   7.9670000
 -20.4300000 -28.1920000  10.1670000 -21.0600000 -27.9810000  10.9150000
 -19.1990000 -28.9260000  10.4800000 -18.2750000 -28.4150000  10.1700000
 -19.1110000 -29.2850000  11.9960000 -20.0570000 -29.7800000  12.2620000
 -17.9270000 -30.2020000  12.3750000 -16.9810000 -29.7080000  12.1110000
 -17.9470000 -30.3990000  13.4570000 -18.0090000 -31.1530000  11.8280000
 -19.1440000 -28.0320000  12.9030000 -20.1100000 -27.5410000  12.7140000
 -19.1170000 -28.4000000  13.9390000 -18.0050000 -27.0230000  12.6890000
 -18.0310000 -26.6540000  11.6530000 -18.1280000 -26.1780000  13.3830000
 -17.0390000 -27.5140000  12.8780000 -19.0640000 -30.2330000   9.6690000
 -17.9570000 -30.5450000   9.2310000 -20.1890000 -30.9430000   9.4610000
 -21.0230000 -30.6440000   9.9470000 -20.2550000 -32.1620000   8.6580000
 -19.4570000 -32.8450000   8.9490000 -21.6080000 -32.8630000   8.8790000
 -21.8620000 -32.9270000   9.9370000 -22.3840000 -32.3070000   8.3530000
 -21.6460000 -34.2720000   8.3400000 -20.9650000 -35.3260000   8.9600000
 -21.1930000 -36.3780000   8.1850000 -20.7310000 -37.3130000   8.5020000
 -21.9640000 -36.0950000   7.1340000 -22.2770000 -36.7220000   6.4070000
 -22.2750000 -34.7490000   7.2090000 -22.9070000 -34.2920000   6.4470000
 -20.0040000 -31.8980000   7.1650000 -19.2520000 -32.6500000   6.5500000
 -20.6040000 -30.8240000   6.6240000 -21.2680000 -30.3330000   7.2050000
 -20.4400000 -30.3870000   5.2330000 -20.6370000 -31.2190000   4.5560000
 -21.4270000 -29.2470000   4.9130000 -21.2330000 -28.3950000   5.5640000
 -21.3070000 -28.9440000   3.8730000 -22.8820000 -29.6050000   5.0930000
 -23.4940000 -29.6620000   6.3490000 -24.7510000 -30.0030000   6.1060000
 -25.4000000 -30.0960000   6.9770000 -25.0000000 -30.1750000   4.8080000
 -25.8730000 -30.4370000   4.3730000 -23.8180000 -29.9260000   4.1310000
 -23.7850000 -30.0070000   3.0450000 -18.9930000 -29.9820000   4.9000000
 -18.5110000 -30.3250000   3.8210000 -18.3190000 -29.3180000   5.8560000
 -18.8560000 -28.9250000   6.6030000 -16.8870000 -29.0320000   5.8060000
 -16.6200000 -28.6410000   4.8130000 -16.5090000 -27.9790000   6.8690000
 -17.2300000 -28.0660000   7.6960000 -15.5020000 -28.2310000   7.2320000
 -16.5140000 -26.5560000   6.3410000 -15.3870000 -26.0750000   5.6430000
 -14.5280000 -26.7400000   5.4700000 -15.3580000 -24.7510000   5.1680000
 -14.4780000 -24.3820000   4.6200000 -16.4620000 -23.9040000   5.3790000
 -16.4160000 -22.6100000   4.9560000 -15.5520000 -22.3750000   4.5110000
 -17.6050000 -24.3920000   6.0420000 -18.4810000 -23.7410000   6.1770000
 -17.6270000 -25.7120000   6.5310000 -18.5140000 -26.0860000   7.0630000
 -16.0220000 -30.2960000   5.9220000 -15.0900000 -30.4240000   5.1340000
 -16.3370000 -31.2100000   6.8600000 -17.0490000 -30.9680000   7.5190000
 -15.5830000 -32.4510000   7.0740000 -14.5100000 -32.2200000   7.1440000
 -16.0220000 -33.1550000   8.3790000 -15.8160000 -32.4600000   9.2070000
 -17.1060000 -33.3270000   8.3060000 -15.3050000 -34.4980000   8.6430000
 -15.6540000 -35.2130000   7.8830000 -14.2260000 -34.3260000   8.5150000
 -15.5690000 -35.0690000  10.0410000 -15.0570000 -34.4410000  10.7860000
 -16.6520000 -35.0560000  10.2330000 -15.0820000 -36.4530000  10.1760000
 -15.8100000 -37.1380000  10.2030000 -13.8040000 -36.8700000  10.2540000
 -12.7760000 -36.0120000  10.2400000 -12.9490000 -35.0300000  10.1700000
 -11.8390000 -36.3580000  10.2990000 -13.5480000 -38.1810000  10.3590000
 -14.3040000 -38.8350000  10.3790000 -12.6020000 -38.5000000  10.4170000
 -15.5970000 -33.3910000   5.8560000 -14.5300000 -33.8550000   5.4660000
 -16.7760000 -33.6230000   5.2540000 -17.6050000 -33.2850000   5.7010000
 -16.9220000 -34.4550000   4.0550000 -16.3770000 -35.4010000   4.1870000
 -18.4140000 -34.7740000   3.8040000 -18.9230000 -33.8060000   3.6830000
 -18.4570000 -35.3310000   2.8560000 -19.1170000 -35.5910000   4.9160000
 -19.0770000 -34.9640000   5.8190000 -20.1650000 -35.7270000   4.6120000
 -18.4910000 -36.9560000   5.2140000 -18.5440000 -37.3580000   6.3970000
 -17.9500000 -37.5760000   4.2730000 -16.2470000 -33.8600000   2.8020000
 -15.8030000 -34.6330000   1.9540000 -16.1260000 -32.5220000   2.7310000
 -16.6800000 -31.9790000   3.3630000 -15.3490000 -31.8190000   1.7080000
 -15.4950000 -32.2920000   0.7260000 -15.8180000 -30.3500000   1.6230000
 -16.8900000 -30.3730000   1.3790000 -15.6800000 -29.9150000   2.6240000
 -15.0710000 -29.4900000   0.5800000 -14.0290000 -29.3470000   0.9010000
 -15.0880000 -30.0370000  -0.3740000 -15.7110000 -28.1160000   0.3670000
 -16.3470000 -27.5620000   1.2620000 -15.5220000 -27.5440000  -0.8230000
 -15.9200000 -26.6460000  -1.0120000 -14.9830000 -28.0150000  -1.5210000
 -13.8310000 -31.9610000   1.9330000 -13.1170000 -32.2690000   0.9810000
 -13.3770000 -31.7710000   3.1840000 -14.0560000 -31.4540000   3.8460000
 -11.9820000 -31.8980000   3.6240000 -11.2850000 -31.3090000   3.0100000
 -11.8280000 -31.4880000   5.1250000 -12.6920000 -31.9200000   5.6510000
 -10.5260000 -31.9410000   5.8170000  -9.6610000 -31.5090000   5.2910000
 -10.5280000 -31.5990000   6.8620000 -10.4590000 -33.0390000   5.7910000
 -11.9910000 -29.9630000   5.2990000 -11.0210000 -29.5090000   5.0480000
 -12.7470000 -29.6390000   4.5680000 -12.4150000 -29.5180000   6.7040000
 -11.6590000 -29.8410000   7.4350000 -12.5050000 -28.4220000   6.7300000
 -13.3850000 -29.9710000   6.9550000 -11.3990000 -33.3080000   3.3940000
 -10.2920000 -33.4170000   2.8680000 -12.1680000 -34.3480000   3.7610000
 -13.0260000 -34.1360000   4.2280000 -11.8040000 -35.7540000   3.5820000
 -10.7950000 -35.9360000   3.9800000 -12.8010000 -36.6560000   4.3370000
 -13.8080000 -36.3640000   4.0040000 -12.5960000 -37.6900000   4.0210000
 -12.7220000 -36.5630000   5.8740000 -11.6800000 -36.7690000   6.1590000
 -12.9800000 -35.5300000   6.1500000 -13.6590000 -37.5420000   6.6120000
 -13.1890000 -38.5340000   6.5480000 -13.6880000 -37.2170000   7.6630000
 -15.0920000 -37.6190000   6.0600000 -15.5470000 -36.6200000   6.1380000
 -15.0400000 -37.9170000   5.0020000 -15.9110000 -38.5890000   6.8020000
 -15.7770000 -38.4560000   7.7840000 -16.8750000 -38.4530000   6.5760000
 -15.6370000 -39.5180000   6.5510000 -11.7330000 -36.1830000   2.1060000
 -10.8490000 -36.9620000   1.7570000 -12.6550000 -35.6650000   1.2750000
 -13.3750000 -35.1110000   1.6940000 -12.7350000 -35.9360000  -0.1620000
 -12.6410000 -37.0140000  -0.3610000 -14.1100000 -35.4560000  -0.6780000
 -14.8670000 -36.0550000  -0.1500000 -14.2040000 -34.4010000  -0.3790000
 -14.3260000 -35.5800000  -2.1990000 -13.6530000 -34.8590000  -2.6860000
 -14.0400000 -36.6020000  -2.4890000 -15.7740000 -35.3080000  -2.6410000
 -15.8070000 -35.3210000  -3.7400000 -16.4120000 -36.1120000  -2.2450000
 -16.2980000 -34.0140000  -2.1680000 -17.0710000 -34.0940000  -1.5390000
 -15.8490000 -32.7850000  -2.4800000 -14.8100000 -32.5920000  -3.3060000
 -14.3440000 -33.3790000  -3.7110000 -14.5060000 -31.6620000  -3.5130000
 -16.4650000 -31.7170000  -1.9590000 -17.2460000 -31.8430000  -1.3480000
 -16.1410000 -30.7980000  -2.1830000 -11.5670000 -35.3140000  -0.9480000
 -10.9890000 -35.9890000  -1.7990000 -11.2500000 -34.0440000  -0.6430000
 -11.8270000 -33.5920000   0.0370000 -10.1980000 -33.2590000  -1.2920000
 -10.2010000 -33.3480000  -2.3880000 -10.3410000 -31.7530000  -0.9140000
 -10.5390000 -31.7240000   0.1680000  -9.1250000 -30.8640000  -1.2370000
  -8.9260000 -30.8920000  -2.3190000  -9.3350000 -29.8290000  -0.9300000
  -8.2440000 -31.2350000  -0.6930000 -11.5900000 -31.1450000  -1.5790000
 -12.4860000 -31.6850000  -1.2390000 -11.6740000 -30.0840000  -1.3010000
 -11.5030000 -31.2320000  -2.6720000  -8.7750000 -33.7700000  -0.9750000
  -7.9150000 -33.7120000  -1.8540000  -8.5660000 -34.2880000   0.2480000
  -9.3130000 -34.2170000   0.9090000  -7.2980000 -34.8740000   0.6930000
  -6.4540000 -34.4260000   0.1480000  -7.1160000 -34.5960000   2.1970000
  -8.0000000 -34.9880000   2.7220000  -6.2200000 -35.1380000   2.5340000
  -6.9570000 -33.0970000   2.5100000  -6.1090000 -32.7250000   1.9170000
  -7.8800000 -32.5930000   2.1860000  -6.7090000 -32.8030000   3.9980000
  -6.8540000 -31.7210000   4.1350000  -7.4790000 -33.3500000   4.5610000
  -5.3160000 -33.2030000   4.5130000  -5.2760000 -32.9990000   5.5930000
  -5.1800000 -34.2800000   4.3380000  -4.2440000 -32.4560000   3.8320000
  -4.3010000 -32.6150000   2.8460000  -4.3490000 -31.4790000   4.0190000
  -3.3550000 -32.7670000   4.1680000  -7.1840000 -36.3830000   0.4030000
  -6.0670000 -36.8980000   0.4320000  -8.3200000 -37.0530000   0.1350000
  -9.1510000 -36.5140000   0.2740000  -8.4610000 -38.4870000  -0.1500000
  -9.5300000 -38.7430000  -0.1950000  -7.8000000 -38.8730000  -1.5040000
  -8.0100000 -38.0860000  -2.2430000  -6.7240000 -38.8830000  -1.2760000
  -8.2140000 -40.2370000  -2.0770000  -9.2230000 -40.8040000  -1.6030000
  -7.5370000 -40.6600000  -3.0400000  -8.0000000 -39.3490000   1.0530000
  -7.1350000 -40.2140000   0.9120000  -8.5760000 -39.0560000   2.2310000
  -9.2490000 -38.3160000   2.2190000  -8.2650000 -39.6900000   3.5130000
  -8.2860000 -40.7850000   3.4080000  -6.8490000 -39.2640000   3.9830000
  -6.1240000 -39.6100000   3.2310000  -6.8260000 -38.1650000   4.0350000
  -6.5110000 -39.8040000   5.2480000  -5.5930000 -39.5020000   5.5050000
  -9.3400000 -39.2960000   4.5370000  -9.8470000 -38.1770000   4.4730000
  -9.6320000 -40.1990000   5.4880000  -9.3060000 -41.1350000   5.3550000
 -10.5040000 -39.9210000   6.6360000 -10.9600000 -38.9260000   6.5230000
 -11.6290000 -40.9710000   6.7320000 -11.1580000 -41.9450000   6.9320000
 -12.2700000 -40.6930000   7.5820000 -12.4860000 -41.0680000   5.4530000
 -12.6880000 -40.0500000   5.0880000 -11.9120000 -41.6220000   4.6960000
 -13.8080000 -41.7860000   5.7140000 -13.8990000 -42.9770000   5.3450000
 -14.7030000 -41.1240000   6.2860000  -9.7290000 -39.7920000   7.9620000
 -10.3350000 -39.4100000   8.9630000  -8.4100000 -40.0600000   7.9370000
  -8.0670000 -40.4520000   7.0830000  -7.4780000 -39.9210000   9.0630000
  -8.0050000 -40.0740000  10.0160000  -6.3550000 -40.9870000   8.9400000
  -6.7980000 -41.9350000   8.6020000  -5.7010000 -40.5870000   8.1510000
  -5.5300000 -41.2320000  10.2120000  -6.1230000 -41.1890000  11.3110000
  -4.3240000 -41.5250000  10.0540000  -6.9080000 -38.4790000   9.1640000
  -5.9470000 -38.2570000   9.8990000  -7.4970000 -37.5220000   8.4230000
  -8.2730000 -37.8230000   7.8690000  -7.1020000 -36.1130000   8.3560000
  -6.0750000 -35.9710000   7.9900000  -8.0740000 -35.3220000   7.4320000
  -9.0990000 -35.5640000   7.7500000  -7.8680000 -33.7920000   7.4810000
  -6.8430000 -33.5490000   7.1630000  -8.5860000 -33.3030000   6.8070000
  -8.0270000 -33.4330000   8.5080000  -7.9660000 -35.8100000   5.9770000
  -8.2220000 -36.8790000   5.9290000  -8.6600000 -35.2370000   5.3450000
  -6.9370000 -35.6640000   5.6160000  -7.1160000 -35.4400000   9.7560000
  -8.1730000 -35.4500000  10.3920000  -5.9640000 -34.8750000  10.2010000
  -4.6660000 -34.9530000   9.5290000  -4.6870000 -34.2900000   8.6520000
  -4.5060000 -35.9900000   9.2000000  -3.6520000 -34.5130000  10.5670000
  -2.7850000 -34.0320000  10.0900000  -3.3120000 -35.3680000  11.1700000
  -4.4310000 -33.5310000  11.4140000  -4.4340000 -32.5260000  10.9670000
  -4.0250000 -33.4770000  12.4350000  -5.8580000 -34.0900000  11.4480000
  -5.9790000 -34.7940000  12.2840000  -6.8950000 -32.9640000  11.5740000
  -6.9480000 -32.0760000  10.7220000  -7.7310000 -33.0630000  12.6150000
  -7.5680000 -33.7990000  13.2720000  -8.9120000 -32.2280000  12.7920000
  -8.7010000 -31.1830000  12.5190000 -10.0250000 -32.7670000  11.8600000
  -9.6160000 -32.7160000  10.8400000 -10.1720000 -33.8200000  12.1430000
 -11.3730000 -32.0310000  11.9090000 -11.7390000 -32.0880000  12.9450000
 -11.1810000 -30.9800000  11.6460000 -12.6340000 -32.7050000  10.7940000
 -11.9080000 -32.2880000   9.1860000 -10.9260000 -32.7740000   9.0890000
 -12.5710000 -32.6390000   8.3820000 -11.7860000 -31.1970000   9.1100000
  -9.2950000 -32.2040000  14.2780000  -9.1200000 -33.2110000  14.9630000
  -9.8020000 -31.0520000  14.7420000  -9.8510000 -30.2920000  14.0930000
 -10.2740000 -30.8280000  16.1100000 -10.5480000 -31.7630000  16.6220000
  -9.2090000 -30.0770000  16.9750000  -8.8010000 -29.2770000  16.3390000
  -9.7310000 -29.4680000  18.2970000 -10.1390000 -30.2670000  18.9340000
  -8.9040000 -28.9670000  18.8220000 -10.5220000 -28.7360000  18.0770000
  -8.0080000 -30.9810000  17.2970000  -7.5310000 -31.3050000  16.3600000
  -7.2800000 -30.4230000  17.9050000  -8.3520000 -31.8630000  17.8570000
 -11.5590000 -29.9880000  16.0400000 -11.5760000 -28.9700000  15.3460000
 -12.5980000 -30.4150000  16.7780000 -12.5270000 -31.3190000  17.2000000
 -13.8480000 -29.6720000  16.9380000 -14.1140000 -29.1650000  15.9990000
 -14.9860000 -30.6530000  17.3100000 -14.9160000 -31.4130000  16.5180000
 -14.7930000 -31.1230000  18.2860000 -16.4040000 -30.0330000  17.3070000
 -16.4030000 -29.1890000  18.0130000 -16.8360000 -29.5380000  15.9170000
 -16.8370000 -30.3810000  15.2110000 -17.8470000 -29.1100000  15.9780000
 -16.1330000 -28.7680000  15.5670000 -17.4440000 -31.0030000  17.8840000
 -17.1770000 -31.2540000  18.9210000 -18.4370000 -30.5300000  17.8660000
 -17.4650000 -31.9210000  17.2790000 -13.6760000 -28.5650000  17.9910000
 -13.0480000 -28.7950000  19.0250000 -14.2610000 -27.3930000  17.7090000
 -14.7030000 -27.3110000  16.8160000 -14.2390000 -26.2240000  18.5790000
 -13.9620000 -26.4710000  19.6140000 -13.2600000 -25.1340000  18.0480000
 -13.3640000 -25.1320000  16.9530000 -13.4920000 -23.7090000  18.5890000
 -13.3880000 -23.7100000  19.6840000 -12.7500000 -23.0250000  18.1520000
 -14.5040000 -23.3740000  18.3180000 -11.8080000 -25.5490000  18.3270000
 -11.5950000 -26.5020000  17.8210000 -11.1260000 -24.7740000  17.9480000
 -11.6620000 -25.6680000  19.4110000 -15.6560000 -25.6570000  18.7260000
 -16.2610000 -25.2550000  17.7330000 -16.1290000 -25.6010000  19.9800000
 -15.5900000 -26.0400000  20.6990000 -17.3740000 -24.9430000  20.3540000
 -18.0420000 -24.8230000  19.4890000 -17.8990000 -25.4940000  21.1480000
 -16.9880000 -23.5650000  20.8780000 -16.7530000 -23.4110000  22.0750000
 -16.9200000 -22.5760000  19.9750000 -17.0270000 -22.8280000  19.0130000
 -16.6210000 -21.1830000  20.2970000 -15.8810000 -21.1260000  21.1090000
 -16.0360000 -20.4850000  19.0460000 -15.2830000 -21.1590000  18.6110000
 -16.8520000 -20.3330000  18.3250000 -15.3740000 -19.1290000  19.3320000
 -14.6670000 -18.9630000  20.3240000 -15.6100000 -18.1490000  18.4620000
 -15.2010000 -17.2480000  18.6060000 -16.1950000 -18.3180000  17.6690000
 -17.8660000 -20.4530000  20.8300000 -18.9910000 -20.8870000  20.5880000
 -17.6090000 -19.3250000  21.5090000 -16.6450000 -19.2210000  21.7550000
 -18.5720000 -18.3730000  22.0620000 -18.0240000 -17.4980000  22.4420000
 -19.6080000 -17.8910000  21.0130000 -20.3120000 -18.7210000  20.8570000
 -20.1410000 -17.0390000  21.4610000 -19.0070000 -17.4670000  19.6610000
 -18.0240000 -17.0130000  19.8550000 -18.8780000 -18.3720000  19.0490000
 -19.8930000 -16.4670000  18.9120000 -20.9190000 -16.8650000  18.9010000
 -19.8750000 -15.5170000  19.4660000 -19.4220000 -16.2290000  17.4740000
 -18.3620000 -15.9340000  17.4950000 -19.5300000 -17.1670000  16.9090000
 -20.2110000 -15.1730000  16.8240000 -21.1600000 -15.2280000  17.1330000
 -19.8340000 -14.2790000  17.0650000 -20.1760000 -15.2940000  15.8320000
 -19.2270000 -18.8680000  23.3630000 -20.3660000 -18.4990000  23.6410000
 -18.4950000 -19.6700000  24.1570000 -17.6190000 -19.9800000  23.7890000
 -18.9470000 -20.2260000  25.4410000 -19.9800000 -20.5890000  25.3370000
 -18.0570000 -21.3980000  25.8910000 -16.9830000 -21.1770000  25.7990000
 -18.2760000 -21.7300000  26.9170000 -18.3680000 -22.8280000  24.8230000
 -17.5220000 -23.6220000  25.4090000 -19.1010000 -19.1880000  26.5740000
 -19.6520000 -19.5390000  27.6170000 -18.6850000 -17.9300000  26.3410000
 -18.0650000 -17.8020000  25.5670000 -19.0050000 -16.7660000  27.1760000
 -18.8040000 -17.0280000  28.2250000 -18.1820000 -15.4980000  26.8150000
 -18.6770000 -14.7190000  27.4140000 -17.1460000 -15.6240000  27.1610000
 -18.1800000 -15.0820000  25.3350000 -17.8980000 -15.9420000  24.4720000
 -18.3760000 -13.8730000  25.0870000 -20.5090000 -16.4150000  27.1320000
 -21.0330000 -15.8960000  28.1170000 -21.1580000 -16.6880000  25.9860000
 -20.6130000 -17.1070000  25.2590000 -22.5530000 -16.3650000  25.7060000
 -22.8470000 -15.4390000  26.2230000 -22.7250000 -16.1570000  24.1820000
 -22.3860000 -17.1270000  23.7890000 -23.7750000 -15.9930000  23.8970000
 -21.8470000 -15.0250000  23.5890000 -20.8070000 -15.1920000  23.9050000
 -21.9180000 -14.9940000  22.0510000 -22.9580000 -14.8270000  21.7350000
 -21.2830000 -14.1800000  21.6710000 -21.5630000 -15.9540000  21.6470000
 -22.1570000 -13.6470000  24.2080000 -21.9740000 -13.6820000  25.2920000
 -21.5080000 -12.8850000  23.7520000 -23.2100000 -13.3900000  24.0220000
 -23.4850000 -17.4670000  26.2380000 -23.1670000 -18.6530000  26.1380000
 -24.6210000 -16.9980000  26.7620000 -24.6730000 -16.0010000  26.7100000
 -25.7150000 -17.7150000  27.4090000 -25.3490000 -18.4630000  28.1270000
 -26.5290000 -16.6460000  28.1800000 -27.5300000 -17.0590000  28.3730000
 -26.0190000 -16.4580000  29.1370000 -26.7960000 -14.9970000  27.4130000
 -26.6360000 -18.5110000  26.4650000 -26.5780000 -18.3220000  25.2520000
 -27.5240000 -19.3360000  27.0600000 -27.2620000 -19.6640000  27.9680000
 -28.7160000 -19.9200000  26.4250000 -29.2180000 -20.6110000  27.1180000
 -29.7080000 -18.7870000  26.0480000 -29.7900000 -18.1090000  26.9100000
 -29.2880000 -18.2410000  25.1900000 -30.9910000 -19.2780000  25.7110000
 -31.5900000 -18.5120000  25.4770000 -28.4070000 -20.8950000  25.2620000
 -29.2660000 -21.0970000  24.4020000 -27.1870000 -21.4650000  25.2590000
 -26.6130000 -21.2060000  26.0350000 -26.5860000 -22.2660000  24.1880000
 -26.4710000 -21.6640000  23.2740000 -25.1900000 -22.7460000  24.6420000
 -24.7620000 -23.2720000  23.7760000 -24.6120000 -21.8310000  24.8370000
 -25.1320000 -23.6630000  25.8800000 -25.6590000 -23.1550000  26.7010000
 -25.6550000 -24.5980000  25.6320000 -23.6920000 -23.9810000  26.3150000
 -23.1230000 -23.0430000  26.3960000 -23.7120000 -24.4830000  27.2940000
 -23.0180000 -24.8590000  25.3510000 -23.5600000 -25.1050000  24.5470000
 -21.7670000 -25.3360000  25.4510000 -20.9750000 -25.0210000  26.4860000
 -21.3160000 -24.4170000  27.2070000 -20.0480000 -25.3920000  26.5330000
 -21.3130000 -26.1540000  24.4970000 -21.9050000 -26.3980000  23.7290000
 -20.3840000 -26.5180000  24.5550000 -27.4790000 -23.4060000  23.6600000
 -27.8610000 -24.2970000  24.4180000 -27.7960000 -23.3290000  22.3570000
 -27.4610000 -22.5220000  21.8700000 -28.6260000 -24.2910000  21.6230000
 -29.5200000 -24.6200000  22.1730000 -29.0720000 -23.7180000  20.2460000
 -29.7940000 -24.4270000  19.8160000 -29.7120000 -22.3230000  20.3310000
 -28.9900000 -21.6140000  20.7610000 -29.9990000 -21.9890000  19.3230000
 -30.6060000 -22.3670000  20.9700000 -28.0350000 -23.6960000  19.2790000
 -28.3860000 -23.3190000  18.4220000 -27.9260000 -25.6490000  21.3880000
 -28.6190000 -26.6560000  21.2500000 -26.5820000 -25.6460000  21.3790000
 -26.1390000 -24.7510000  21.4360000 -25.7370000 -26.8310000  21.3190000
 -26.3180000 -27.7560000  21.1920000 -24.6920000 -26.7390000  20.1700000
 -24.1110000 -25.8180000  20.3210000 -23.7350000 -27.9490000  20.1220000
 -24.3160000 -28.8700000  19.9700000 -23.0250000 -27.8230000  19.2920000
 -23.1810000 -28.0180000  21.0700000 -25.3730000 -26.5620000  18.8030000
 -25.9690000 -25.6370000  18.8070000 -24.6070000 -26.5000000  18.0160000
 -26.0310000 -27.4210000  18.6070000 -24.9880000 -26.9130000  22.6570000
 -24.1570000 -26.0450000  22.9390000 -25.3050000 -27.9430000  23.4590000
 -26.1000000 -28.4960000  23.2100000 -24.6570000 -28.2000000  24.7490000
 -24.3230000 -27.2390000  25.1680000 -25.5940000 -28.8920000  25.7790000
 -25.0540000 -29.0690000  26.7210000 -26.3530000 -28.1110000  25.9320000
 -26.2790000 -30.1890000  25.3320000 -25.6440000 -30.9510000  24.5730000
 -27.3850000 -30.4520000  25.8490000 -23.3260000 -28.9590000  24.5600000
 -22.9880000 -29.3750000  23.4490000 -22.5980000 -29.1300000  25.6740000
 -22.9370000 -28.6850000  26.5030000 -21.3430000 -29.8780000  25.7510000
 -20.6170000 -29.4870000  25.0220000 -20.7270000 -29.7680000  27.1740000
 -21.4170000 -30.2890000  27.8540000 -19.3140000 -30.3580000  27.3260000
 -18.6240000 -29.8370000  26.6460000 -18.9720000 -30.2300000  28.3640000
 -19.3340000 -31.4290000  27.0770000 -20.6560000 -28.4070000  27.5490000
 -20.2600000 -28.3340000  28.4640000 -21.4970000 -31.3760000  25.4050000
 -20.5820000 -31.9460000  24.8150000 -22.6570000 -31.9690000  25.7400000
 -23.2850000 -31.4270000  26.2990000 -22.9930000 -33.3700000  25.4800000
 -22.1590000 -34.0270000  25.7690000 -24.2370000 -33.7520000  26.3170000
 -23.9990000 -33.4860000  27.3570000 -25.0570000 -33.1140000  25.9550000
 -24.6700000 -35.2320000  26.2510000 -23.7590000 -35.8230000  26.0770000
 -25.0900000 -35.4860000  27.2360000 -25.7050000 -35.5500000  25.1540000
 -26.5640000 -34.8790000  25.3020000 -25.2360000 -35.3360000  24.1820000
 -26.1860000 -37.0090000  25.1800000 -26.5820000 -37.2250000  26.1830000
 -26.9890000 -37.1210000  24.4370000 -25.0970000 -37.9500000  24.8700000
 -24.7370000 -37.7540000  23.9580000 -24.3670000 -37.8490000  25.5460000
 -25.4480000 -38.8860000  24.8960000 -23.1350000 -33.6800000  23.9800000
 -22.5020000 -34.6250000  23.5130000 -23.9280000 -32.8680000  23.2580000
 -24.4380000 -32.1790000  23.7740000 -24.1570000 -32.9640000  21.8120000
 -24.5780000 -33.9480000  21.5580000 -25.1550000 -31.8720000  21.3710000
 -24.8600000 -30.9370000  21.8710000 -25.0520000 -31.7540000  20.2820000
 -26.6200000 -32.1970000  21.7150000 -26.9490000 -33.0290000  21.0750000
 -26.7000000 -32.4940000  22.7710000 -27.5410000 -30.9990000  21.4720000
 -27.3240000 -29.9210000  22.0180000 -28.5880000 -31.1840000  20.6660000
 -29.2140000 -30.4260000  20.4820000 -28.7420000 -32.0800000  20.2490000
 -22.8760000 -32.8750000  20.9700000 -22.7050000 -33.6660000  20.0420000
 -22.0020000 -31.9190000  21.3210000 -22.2790000 -31.2890000  22.0470000
 -20.7420000 -31.6670000  20.6300000 -20.9570000 -31.7340000  19.5530000
 -20.2890000 -30.2430000  20.9500000 -20.0610000 -30.1620000  22.0230000
 -19.3880000 -30.0040000  20.3650000 -21.0910000 -29.5360000  20.6930000
 -19.6500000 -32.7100000  20.9210000 -18.8440000 -32.9770000  20.0290000
 -19.6770000 -33.3340000  22.1130000 -20.2220000 -32.9260000  22.8460000
 -18.8740000 -34.5210000  22.4230000 -17.8240000 -34.3340000  22.1530000
 -18.9440000 -34.8620000  23.9240000 -19.9900000 -34.7320000  24.2400000
 -18.6570000 -35.9190000  24.0320000 -18.0310000 -33.9910000  24.8030000
 -16.9890000 -34.1350000  24.4800000 -18.3050000 -32.9310000  24.6940000
 -18.1430000 -34.3750000  26.2780000 -17.2130000 -34.9380000  26.8490000
 -19.2890000 -34.0860000  26.8960000 -19.4060000 -34.3200000  27.8610000
 -20.0270000 -33.6380000  26.3910000 -19.2620000 -35.7440000  21.5760000
 -18.3650000 -36.4640000  21.1440000 -20.5710000 -35.9370000  21.3290000
 -21.2150000 -35.3710000  21.8430000 -21.1090000 -37.0060000  20.4780000
 -20.5870000 -37.9400000  20.7350000 -22.6320000 -37.2320000  20.6340000
 -23.0470000 -36.3010000  20.2190000 -22.9560000 -38.0840000  20.0180000
 -23.1340000 -37.4200000  22.0690000 -22.3400000 -37.8570000  22.9330000
 -24.3520000 -37.2170000  22.2630000 -20.7500000 -36.8380000  18.9930000
 -20.4480000 -37.8420000  18.3460000 -20.7550000 -35.5880000  18.4910000
 -21.1170000 -34.8570000  19.0690000 -20.3560000 -35.2560000  17.1210000
 -20.8890000 -35.9030000  16.4090000 -20.7020000 -33.7810000  16.8040000
 -21.7440000 -33.7230000  17.1510000 -20.0880000 -33.0620000  17.3670000
 -20.6410000 -33.4400000  15.2940000 -19.6750000 -33.7920000  14.9020000
 -21.7880000 -34.0980000  14.5000000 -22.7540000 -33.7460000  14.8910000
 -21.7010000 -33.8280000  13.4370000 -21.7270000 -35.1910000  14.6050000
 -20.5520000 -31.9270000  15.0290000 -19.6440000 -31.5240000  15.5010000
 -20.5120000 -31.7460000  13.9450000 -21.4370000 -31.4280000  15.4510000
 -18.8660000 -35.5550000  16.8740000 -18.5390000 -36.1970000  15.8770000
 -18.0050000 -35.1190000  17.8080000 -18.3770000 -34.5480000  18.5400000
 -16.5630000 -35.3470000  17.7730000 -16.2120000 -35.0410000  16.7770000
 -15.8950000 -34.4560000  18.8220000 -16.2300000 -34.7560000  19.8260000
 -14.8020000 -34.5640000  18.7530000 -16.1710000 -33.4070000  18.6420000
 -16.1600000 -36.8180000  17.9640000 -15.2060000 -37.2470000  17.3200000
 -16.8990000 -37.5700000  18.8010000 -17.5960000 -37.1010000  19.3430000
 -16.6640000 -38.9960000  19.0540000 -15.5910000 -39.1820000  19.2080000
 -17.4290000 -39.4350000  20.3230000 -17.2160000 -38.6850000  21.0990000
 -18.5000000 -39.4100000  20.0740000 -17.0560000 -40.8380000  20.8480000
 -17.1540000 -41.5320000  20.0000000 -16.0030000 -40.7920000  21.1630000
 -17.9200000 -41.3340000  22.0200000 -18.9330000 -41.5390000  21.6420000
 -17.4780000 -42.2630000  22.4080000 -18.0150000 -40.3610000  23.1210000
 -17.2130000 -40.2840000  23.7140000 -19.0810000 -39.5820000  23.3780000
 -20.2130000 -39.6960000  22.6720000 -20.2740000 -40.3710000  21.9370000
 -20.9910000 -39.1050000  22.8830000 -19.0190000 -38.6750000  24.3600000
 -18.1810000 -38.5810000  24.8980000 -19.8110000 -38.0960000  24.5520000
 -16.9980000 -39.8790000  17.8360000 -16.2770000 -40.8460000  17.5950000
 -18.0420000 -39.5080000  17.0700000 -18.6520000 -38.8090000  17.4420000
 -18.4230000 -40.1680000  15.8150000 -18.3890000 -41.2610000  15.9340000
 -19.8630000 -39.7580000  15.4300000 -20.2560000 -40.5340000  14.7570000
 -20.4570000 -39.7420000  16.3550000 -19.9460000 -38.4970000  14.7940000
 -20.9010000 -38.2970000  14.5740000 -17.4040000 -39.9530000  14.6740000
 -17.3050000 -40.8070000  13.7940000 -16.6520000 -38.8400000  14.7320000
 -16.8850000 -38.1810000  15.4470000 -15.5540000 -38.5150000  13.8200000
 -15.7300000 -38.9570000  12.8280000 -15.4730000 -36.9830000  13.6700000
 -15.2440000 -36.6360000  14.6880000 -14.6110000 -36.7890000  13.0140000
 -16.6900000 -36.2370000  13.1420000 -17.6780000 -36.8630000  12.3490000
 -17.5980000 -37.9370000  12.1250000 -18.7630000 -36.1170000  11.8460000
 -19.5340000 -36.6110000  11.2360000 -18.8640000 -34.7410000  12.1300000
 -19.8980000 -34.0090000  11.6270000 -20.5260000 -34.5520000  11.0700000
 -17.8900000 -34.1170000  12.9300000 -17.9750000 -33.0450000  13.1610000
 -16.8090000 -34.8620000  13.4340000 -16.0490000 -34.3730000  14.0610000
 -14.1950000 -39.0550000  14.3110000 -13.2650000 -39.1260000  13.5080000
 -14.0950000 -39.4100000  15.6060000 -14.9260000 -39.3200000  16.1550000
 -12.8830000 -39.9090000  16.2570000 -13.1860000 -40.4630000  17.1580000
 -12.3800000 -40.5930000  15.5580000 -11.9000000 -38.7930000  16.6620000
 -10.7760000 -39.1120000  17.0450000 -12.2970000 -37.5100000  16.5730000
 -13.2440000 -37.3560000  16.2900000 -11.4480000 -36.3400000  16.8290000
 -10.3660000 -36.5380000  16.8370000 -11.7600000 -35.2020000  15.8090000
 -11.1490000 -34.3200000  16.0510000 -11.4350000 -35.6740000  14.3770000
 -12.0460000 -36.5560000  14.1340000 -11.6580000 -34.8660000  13.6650000
 -10.3690000 -35.9370000  14.3100000 -13.1810000 -34.5930000  15.9200000
 -13.8960000 -35.4180000  15.7840000 -13.2790000 -34.1880000  16.9380000
 -13.4770000 -33.4860000  14.8990000 -13.3800000 -33.8910000  13.8810000
 -14.5010000 -33.1130000  15.0480000 -12.7630000 -32.6610000  15.0350000
 -11.6360000 -35.7830000  18.2650000 -12.6770000 -36.0420000  18.8720000
 -10.6650000 -34.9800000  18.7710000  -9.3030000 -34.8370000  18.2510000
  -9.3040000 -34.0810000  17.4520000  -8.9750000 -35.8030000  17.8400000
  -8.4830000 -34.4110000  19.4560000  -7.5960000 -33.8390000  19.1470000
  -8.1690000 -35.2840000  20.0470000  -9.4540000 -33.5470000  20.2390000
  -9.4480000 -32.5100000  19.8730000  -9.2160000 -33.5580000  21.3130000
 -10.8410000 -34.1780000  20.0020000 -11.1060000 -34.8800000  20.8070000
 -11.9200000 -33.0800000  19.9020000 -12.1960000 -32.5870000  18.8070000
 -12.4630000 -32.6940000  21.0680000 -12.3060000 -33.2920000  21.8540000
 -13.3570000 -31.5490000  21.2360000 -13.2600000 -30.8740000  20.3730000
 -14.8260000 -32.0130000  21.3370000 -15.1300000 -32.3560000  20.3370000
 -14.9190000 -32.8430000  22.0520000 -15.8370000 -30.9580000  21.7610000
 -16.0400000 -29.8070000  20.9730000 -15.4690000 -29.6720000  20.0430000
 -16.9580000 -28.8460000  21.3690000 -17.1180000 -27.9530000  20.7470000
 -17.6730000 -29.0090000  22.5470000 -18.4060000 -28.2450000  22.8460000
 -17.4690000 -30.1260000  23.3470000 -18.0360000 -30.2400000  24.2830000
 -16.5520000 -31.0970000  22.9690000 -16.3830000 -31.9740000  23.6110000
 -12.9140000 -30.6920000  22.4280000 -12.7940000 -31.2180000  23.5350000
 -12.6960000 -29.3920000  22.1700000 -12.8080000 -29.1040000  21.2190000
 -12.2950000 -28.3880000  23.1560000 -12.4640000 -28.7210000  24.1910000
 -10.7950000 -27.9840000  22.9760000 -10.6260000 -27.8910000  21.8930000
 -10.3680000 -26.6710000  23.6800000 -10.5360000 -26.7640000  24.7630000
  -9.3010000 -26.4820000  23.4890000 -10.9630000 -25.8330000  23.2870000
  -9.8620000 -29.1340000  23.4220000  -9.7330000 -29.0430000  24.5110000
 -10.3790000 -30.0780000  23.1930000  -8.4910000 -29.1250000  22.7430000
  -7.9740000 -28.1810000  22.9720000  -7.8920000 -29.9700000  23.1140000
  -8.6200000 -29.2170000  21.6540000 -13.1960000 -27.1560000  22.9790000
 -13.2000000 -26.5620000  21.9020000 -13.9250000 -26.7840000  24.0440000
 -13.9550000 -27.3990000  24.8320000 -14.7330000 -25.5630000  24.0860000
 -15.2390000 -25.4170000  23.1200000 -15.7990000 -25.6630000  25.1880000
 -15.3100000 -25.9820000  26.1200000 -16.2490000 -24.6700000  25.3310000
 -16.8940000 -26.6710000  24.8150000 -17.2360000 -26.4510000  23.7930000
 -16.3940000 -27.6510000  24.8310000 -18.0930000 -26.6970000  25.7570000
 -18.1190000 -25.9310000  26.7450000 -19.0140000 -27.4770000  25.4410000
 -13.8660000 -24.3190000  24.2910000 -12.8920000 -24.3710000  25.0450000
 -14.2510000 -23.2300000  23.6100000 -15.0820000 -23.2900000  23.0570000
 -13.4850000 -21.9920000  23.5710000 -12.8480000 -21.8350000  24.4540000
 -12.5940000 -21.8950000  22.2870000 -11.9230000 -21.0350000  22.4310000
 -11.7610000 -23.1480000  21.9830000 -12.4310000 -24.0080000  21.8390000
 -11.1720000 -22.9840000  21.0680000 -11.0820000 -23.3510000  22.8240000
 -13.3120000 -21.5340000  21.1230000 -12.6850000 -21.4900000  20.3450000
 -14.3760000 -20.7400000  23.6680000 -15.6010000 -20.8110000  23.5660000
 -13.6940000 -19.6030000  23.8450000 -12.7360000 -19.7240000  24.1060000
 -14.2220000 -18.2520000  23.7700000 -14.9390000 -18.1840000  22.9380000
 -14.9460000 -17.8620000  25.0780000 -15.8920000 -18.4210000  25.1240000
 -14.3060000 -18.1550000  25.9240000 -15.2140000 -16.4760000  25.1480000
 -15.6820000 -16.2700000  26.0070000 -13.0310000 -17.3470000  23.4390000
 -12.0980000 -17.2560000  24.2360000 -13.1020000 -16.6840000  22.2760000
 -13.8570000 -16.9240000  21.6650000 -12.1410000 -15.6790000  21.8290000
 -11.1310000 -16.1100000  21.8930000 -12.4350000 -15.3350000  20.3650000
 -13.4400000 -14.8940000  20.2860000 -11.6890000 -14.6130000  20.0010000
 -12.3880000 -16.2500000  19.7570000 -12.1600000 -14.3910000  22.6690000
 -11.1520000 -13.6900000  22.6940000 -13.2970000 -14.0970000  23.3250000
 -14.0790000 -14.7010000  23.1690000 -13.5020000 -12.8900000  24.1230000
 -13.0040000 -12.0260000  23.6590000 -15.0160000 -12.6040000  24.2000000
 -15.4070000 -12.6510000  23.1730000 -15.4670000 -13.4080000  24.8000000
 -15.3700000 -11.2400000  24.8210000 -15.2480000 -11.3250000  25.9110000
 -14.6590000 -10.4970000  24.4290000 -16.8050000 -10.7950000  24.5000000
 -16.9580000 -10.9040000  23.4160000 -17.4940000 -11.4640000  25.0360000
 -17.0780000  -9.3420000  24.9120000 -16.9850000  -9.2630000  26.0050000
 -16.3290000  -8.6940000  24.4330000 -18.4270000  -8.9170000  24.5030000
 -18.5120000  -8.9880000  23.5090000 -19.1090000  -9.5050000  24.9380000
 -18.5770000  -7.9690000  24.7840000 -12.8240000 -12.9370000  25.5050000
 -12.4570000 -11.8810000  26.0190000 -12.6560000 -14.1460000  26.0640000
 -12.9410000 -14.9370000  25.5230000 -12.1040000 -14.3810000  27.4040000
 -11.8640000 -13.4470000  27.9340000 -13.1160000 -15.1930000  28.2610000
 -12.6850000 -15.3050000  29.2670000 -14.4970000 -14.5240000  28.3670000
 -14.9290000 -14.4120000  27.3620000 -15.1610000 -15.1480000  28.9840000
 -14.3900000 -13.5330000  28.8310000 -13.2940000 -16.5130000  27.7780000
 -13.9510000 -16.9950000  28.3590000 -10.7670000 -15.1590000  27.3760000
 -10.1310000 -15.2740000  28.4230000 -10.3710000 -15.6790000  26.2000000
 -11.0190000 -15.5340000  25.4520000  -9.2330000 -16.5790000  25.9710000
  -9.2500000 -16.9190000  24.9250000  -7.8740000 -15.8820000  26.2430000
  -7.9760000 -14.8320000  25.9320000  -7.6930000 -15.9270000  27.3270000
  -6.6860000 -16.5270000  25.4960000  -6.7780000 -17.6170000  25.6130000
  -6.7850000 -16.2630000  24.4330000  -5.3160000 -16.0730000  26.0090000
  -5.2860000 -14.9740000  26.0500000  -5.1470000 -16.4820000  27.0160000
  -4.2400000 -16.5400000  25.1260000  -4.0720000 -17.5260000  25.1460000
  -3.4880000 -15.7780000  24.3160000  -3.6170000 -14.4460000  24.2900000
  -4.2860000 -14.0000000  24.8840000  -3.0440000 -13.9030000  23.6760000
  -2.5860000 -16.3610000  23.5180000  -2.4800000 -17.3550000  23.5310000
  -2.0230000 -15.8000000  22.9120000  -9.3940000 -17.9460000  26.6800000
  -8.4150000 -18.5230000  27.1520000 -10.6340000 -18.4630000  26.7210000
 -11.3970000 -17.8610000  26.4850000 -10.9320000 -19.8430000  27.1020000
 -10.3940000 -20.1150000  28.0220000 -12.4490000 -19.9740000  27.3600000
 -12.6820000 -19.2830000  28.1830000 -12.9480000 -19.6310000  26.4420000
 -12.9510000 -21.3920000  27.7200000 -12.5150000 -22.1030000  27.0020000
 -12.6160000 -21.6460000  28.7360000 -14.4780000 -21.5120000  27.6630000
 -15.2020000 -20.5320000  27.8310000 -14.9770000 -22.7290000  27.4360000
 -15.9670000 -22.8600000  27.3890000 -14.3580000 -23.5050000  27.3130000
 -10.4910000 -20.7690000  25.9620000 -10.9590000 -20.5730000  24.8430000
  -9.6310000 -21.7540000  26.2760000  -9.2350000 -21.6940000  27.1920000
  -9.2330000 -22.8780000  25.4180000  -8.4590000 -23.4270000  25.9750000
 -10.1260000 -23.5110000  25.3120000  -8.6930000 -22.5350000  24.0160000
  -8.5670000 -23.4540000  23.2080000  -8.4020000 -21.2570000  23.7040000
  -8.5190000 -20.5840000  24.4340000  -7.9880000 -20.7820000  22.3780000
  -8.6590000 -21.1200000  21.5750000  -7.8860000 -19.2260000  22.3200000
  -7.2490000 -18.9160000  23.1620000  -7.3040000 -18.6690000  21.0020000
  -7.9410000 -18.9790000  20.1600000  -7.2700000 -17.5710000  21.0500000
  -6.2870000 -19.0610000  20.8560000  -9.2490000 -18.5680000  22.5970000
  -9.6000000 -18.8590000  23.5980000  -9.1450000 -17.4740000  22.5500000
  -9.9770000 -18.9000000  21.8420000  -6.6420000 -21.3980000  21.9620000
  -6.5580000 -22.0040000  20.8940000  -5.6470000 -21.2800000  22.8550000
  -5.8060000 -20.6430000  23.6090000  -4.3230000 -21.8830000  22.7250000
  -3.9620000 -21.6860000  21.7050000  -3.2740000 -21.3480000  23.7330000
  -3.5220000 -21.8840000  24.6610000  -2.2680000 -21.6420000  23.3990000
  -3.3060000 -19.8360000  23.9910000  -2.2810000 -19.1820000  23.6980000
  -4.3200000 -19.3580000  24.5460000  -4.3720000 -23.4170000  22.7570000
  -3.6890000 -24.0390000  21.9480000  -5.2090000 -23.9910000  23.6400000
  -5.6610000 -23.3760000  24.2870000  -5.4060000 -25.4350000  23.8000000
  -4.4330000 -25.9210000  23.9660000  -6.3270000 -25.7430000  25.0070000
  -5.9930000 -25.1680000  25.8830000  -7.3070000 -25.3690000  24.6760000
  -6.4460000 -27.2270000  25.3840000  -5.4860000 -27.9840000  25.1150000
  -7.4730000 -27.5590000  26.0130000  -5.9160000 -26.1090000  22.5090000
  -5.3670000 -27.1390000  22.1250000  -6.9170000 -25.5000000  21.8500000
  -7.3200000 -24.6990000  22.2930000  -7.5110000 -25.9730000  20.5990000
  -7.8650000 -26.9980000  20.7810000  -8.7170000 -25.0940000  20.2450000
  -8.3780000 -24.0660000  20.0510000  -9.2100000 -25.4920000  19.3460000
  -9.4290000 -25.0930000  21.0830000  -6.5140000 -26.0380000  19.4290000
  -6.4730000 -27.0560000  18.7370000  -5.7100000 -24.9730000  19.2590000
  -5.9130000 -24.1540000  19.7960000  -4.6420000 -24.9010000  18.2590000
  -5.0110000 -25.2690000  17.2900000  -4.1680000 -23.4410000  18.0840000
  -4.1080000 -22.9980000  19.0890000  -3.1780000 -23.4020000  17.6070000
  -5.0820000 -22.5410000  17.2650000  -5.3500000 -22.8420000  15.9120000
  -4.9490000 -23.7640000  15.4660000  -6.1170000 -21.9770000  15.1450000
  -6.3060000 -22.2100000  14.0870000  -6.6460000 -20.8210000  15.7070000
  -7.2540000 -20.1430000  15.0900000  -6.4100000 -20.5210000  17.0430000
  -6.8420000 -19.6100000  17.4830000  -5.6320000 -21.3670000  17.8230000
  -5.4430000 -21.1230000  18.8790000  -3.4540000 -25.8380000  18.5420000
  -2.9070000 -26.3980000  17.5930000  -3.0820000 -26.0090000  19.8230000
  -3.5490000 -25.4680000  20.5220000  -1.9700000 -26.8720000  20.2400000
  -1.1450000 -26.7820000  19.5180000  -1.4500000 -26.4700000  21.6390000
  -2.3010000 -26.6060000  22.3220000  -0.6800000 -27.2240000  21.8580000
  -0.8630000 -25.0730000  21.8310000  -0.6940000 -24.1590000  20.7640000
  -0.9580000 -24.4660000  19.7410000  -0.1930000 -22.8660000  21.0030000
  -0.0600000 -22.1670000  20.1640000   0.1560000 -22.4740000  22.3080000
   0.6160000 -21.2110000  22.5380000   0.6630000 -20.6550000  21.7080000
   0.0090000 -23.3830000  23.3750000   0.2920000 -23.0840000  24.3950000
  -0.5000000 -24.6740000  23.1350000  -0.6180000 -25.3820000  23.9680000
  -2.3380000 -28.3650000  20.2120000  -1.4500000 -29.1830000  19.9840000
  -3.6270000 -28.6970000  20.3970000  -4.2450000 -27.9820000  20.7250000
  -4.1600000 -30.0500000  20.2270000  -3.4580000 -30.7690000  20.6740000
  -5.5420000 -30.2180000  20.9080000  -6.1850000 -29.4260000  20.4960000
  -6.2270000 -31.5850000  20.7180000  -5.5850000 -32.3770000  21.1310000
  -7.1940000 -31.5870000  21.2420000  -6.3910000 -31.7680000  19.6460000
  -5.3590000 -30.0350000  22.2980000  -6.2370000 -30.1380000  22.7660000
  -4.2550000 -30.4460000  18.7430000  -3.9890000 -31.6030000  18.4260000
  -4.5440000 -29.4750000  17.8580000  -4.8710000 -28.6050000  18.2260000
  -4.5360000 -29.6550000  16.4060000  -5.1040000 -30.5530000  16.1220000
  -5.2010000 -28.4220000  15.7500000  -6.1740000 -28.4140000  16.2640000
  -4.6520000 -27.5000000  15.9910000  -5.4260000 -28.5020000  14.2240000
  -4.4430000 -28.6070000  13.7420000  -6.3260000 -29.6880000  13.8190000
  -7.3100000 -29.5840000  14.3000000  -6.4520000 -29.6970000  12.7260000
  -5.8590000 -30.6300000  14.1410000  -5.9460000 -27.1570000  13.6770000
  -5.2100000 -26.3670000  13.8860000  -6.0980000 -27.2370000  12.5910000
  -6.9000000 -26.9070000  14.1630000  -3.1280000 -29.9540000  15.8480000
  -3.0170000 -30.7590000  14.9270000  -2.0850000 -29.3590000  16.4530000
  -2.3050000 -28.6330000  17.1050000  -0.6710000 -29.6470000  16.1830000
  -0.3950000 -29.6410000  15.1180000   0.2420000 -28.6360000  16.9390000
  -0.2200000 -28.5000000  17.9280000   1.7250000 -29.0300000  17.1140000
   2.1880000 -29.1650000  16.1250000   2.2540000 -28.2350000  17.6600000
   1.7910000 -29.9700000  17.6810000   0.1530000 -27.2490000  16.2920000
  -0.8870000 -26.8920000  16.3310000   0.8020000 -26.5470000  16.8360000
   0.4790000 -27.3120000  15.2430000  -0.2680000 -31.0900000  16.5550000
   0.4890000 -31.7060000  15.8060000  -0.7990000 -31.6050000  17.6770000
  -1.3250000 -30.9830000  18.2570000  -0.5670000 -32.9720000  18.1540000
   0.5020000 -33.2200000  18.0770000  -0.9990000 -33.1000000  19.6310000
  -2.0560000 -32.8000000  19.6890000  -0.9030000 -34.1600000  19.9070000
  -0.1670000 -32.2380000  20.6030000   0.7810000 -32.7630000  20.7940000
   0.0400000 -31.2760000  20.1110000  -0.8890000 -31.9860000  21.9330000
  -1.8140000 -31.4260000  21.7310000  -1.1400000 -32.9560000  22.3860000
  -0.0730000 -31.2190000  22.8840000   0.9120000 -31.3840000  22.8340000
  -0.5300000 -30.3350000  23.7900000   0.3420000 -29.7390000  24.6110000
   1.3160000 -29.9550000  24.5430000   0.0160000 -29.0800000  25.2890000
  -1.8340000 -30.0300000  23.8930000  -2.4960000 -30.4670000  23.2840000
  -2.1370000 -29.3680000  24.5780000  -1.2490000 -34.0300000  17.2680000
  -0.6510000 -35.0850000  17.0670000  -2.4360000 -33.7220000  16.7060000
  -2.8980000 -32.8980000  17.0340000  -3.1200000 -34.5530000  15.7040000
  -3.2300000 -35.5790000  16.0850000  -4.5280000 -33.9860000  15.3940000
  -4.3790000 -32.9350000  15.1060000  -4.9030000 -34.5530000  14.5290000
  -5.5530000 -34.0630000  16.5420000  -5.1110000 -33.5520000  17.4100000
  -6.4590000 -33.5270000  16.2240000  -5.9180000 -35.4960000  16.9260000
  -6.5620000 -36.1620000  16.0870000  -5.5530000 -35.8950000  18.0540000
  -2.3110000 -34.6940000  14.4000000  -2.2500000 -35.7930000  13.8490000
  -1.6920000 -33.5880000  13.9510000  -1.8650000 -32.7390000  14.4510000
  -0.8500000 -33.5280000  12.7520000  -1.2970000 -34.0690000  11.9050000
  -0.5580000 -32.0570000  12.3330000  -0.1940000 -31.5390000  13.2320000
   0.4700000 -31.8940000  11.1940000   0.1060000 -32.4110000  10.2940000
   0.6060000 -30.8250000  10.9730000   1.4320000 -32.3300000  11.5030000
  -1.8480000 -31.3060000  11.9460000  -2.0830000 -31.5670000  10.9040000
  -2.6520000 -31.6670000  12.6040000  -1.7270000 -29.7850000  12.0760000
  -0.9240000 -29.4230000  11.4180000  -2.6780000 -29.3150000  11.7860000
  -1.4920000 -29.5230000  13.1180000   0.4760000 -34.2880000  12.9330000
   0.8860000 -35.0000000  12.0170000   1.0920000 -34.1540000  14.1200000
   0.7040000 -33.4780000  14.7470000   2.3140000 -34.8490000  14.5210000
   3.1210000 -34.6660000  13.7960000   2.7570000 -34.3130000  15.8980000
   2.7930000 -33.2170000  15.8140000   1.9750000 -34.6000000  16.6160000
   4.1220000 -34.8370000  16.3890000   4.1180000 -35.9330000  16.2910000
   4.9010000 -34.4140000  15.7370000   4.4120000 -34.4550000  17.8470000
   3.5550000 -34.7550000  18.4670000   5.3110000 -34.9940000  18.1810000
   4.6370000 -33.0110000  18.0190000   5.0680000 -32.5510000  17.2430000
   4.3160000 -32.2800000  19.1000000   3.6770000 -32.8210000  20.1460000
   3.4290000 -33.7900000  20.1300000   3.4500000 -32.2540000  20.9380000
   4.6510000 -30.9860000  19.1240000   5.1310000 -30.5820000  18.3450000
   4.4190000 -30.4280000  19.9210000   2.1350000 -36.3800000  14.5330000
   2.9490000 -37.0780000  13.9300000   1.0520000 -36.8500000  15.1810000
   0.5060000 -36.1690000  15.6690000   0.6660000 -38.2610000  15.2940000
   1.5040000 -38.8540000  15.6900000  -0.5340000 -38.3960000  16.2590000
  -1.3050000 -37.7020000  15.8940000  -0.8960000 -39.4300000  16.1600000
  -0.2330000 -38.0960000  17.7440000   0.6040000 -37.3820000  17.7540000
  -1.1320000 -37.6110000  18.1520000   0.1270000 -39.3220000  18.6090000
   0.1170000 -38.9750000  19.6530000  -0.6810000 -40.0530000  18.4590000
   1.4790000 -39.9850000  18.3030000   1.5870000 -40.8660000  18.9520000
   1.4770000 -40.3040000  17.2500000   2.6050000 -39.0640000  18.5350000
   2.5430000 -38.2950000  17.8990000   2.5700000 -38.7230000  19.4750000
   3.4670000 -39.5490000  18.3880000   0.3420000 -38.9320000  13.9460000
   0.6510000 -40.1120000  13.7830000  -0.2560000 -38.1710000  13.0130000
  -0.5330000 -37.2420000  13.2970000  -0.6200000 -38.6230000  11.6680000
  -1.0880000 -39.6070000  11.7010000  -1.6290000 -37.6160000  11.0790000
  -2.5180000 -37.6130000  11.7100000  -1.1810000 -36.6220000  11.0780000
  -2.1010000 -37.8780000   9.6690000  -2.8410000 -38.9920000   9.3080000
  -3.0930000 -38.8910000   8.0010000  -3.6740000 -39.7050000   7.5690000
  -2.5820000 -37.7970000   7.4490000  -2.6140000 -37.4580000   6.4980000
  -1.9420000 -37.1510000   8.5090000  -1.4190000 -36.2100000   8.3380000
   0.5970000 -38.8340000  10.7440000   0.5630000 -39.7480000   9.9210000
   1.6430000 -38.0010000  10.8950000   1.5400000 -37.2470000  11.5440000
   2.8630000 -38.0560000  10.0800000   2.6210000 -38.3700000   9.0540000
   3.5150000 -36.6570000  10.0280000   3.5930000 -36.2820000  11.0590000
   4.5230000 -36.7690000   9.6020000   2.7060000 -35.6590000   9.1780000
   2.5250000 -36.1430000   8.2070000   1.7470000 -35.5070000   9.6960000
   3.3890000 -34.2990000   8.9530000   4.2950000 -34.4890000   8.3590000
   2.6910000 -33.6820000   8.3690000   3.7700000 -33.5580000  10.2440000
   2.9340000 -33.6390000  10.9550000   4.6620000 -34.0370000  10.6730000
   4.0550000 -32.1360000   9.9800000   3.3240000 -31.7480000   9.4180000
   4.1080000 -31.6400000  10.8470000   4.9260000 -32.0550000   9.4960000
   3.8730000 -39.1350000  10.5170000   4.7520000 -39.4620000   9.7200000
   3.7350000 -39.6800000  11.7400000   3.0440000 -39.2720000  12.3370000
   4.5720000 -40.7650000  12.2810000   5.4410000 -40.9290000  11.6260000
   5.0820000 -40.3950000  13.6970000   5.8050000 -41.1750000  13.9780000
   5.6040000 -39.4320000  13.5940000   4.0010000 -40.2790000  14.7910000
   3.2720000 -39.5530000  14.4000000   3.5030000 -41.2470000  14.9500000
   4.5630000 -39.7720000  16.1160000   4.6520000 -40.5920000  17.0550000
   4.8360000 -38.5550000  16.1990000   3.7630000 -42.0570000  12.2680000
   2.6660000 -42.2030000  11.7230000   4.1923956 -43.0674140  12.8203790
 -27.6500000 -15.2620000  25.5670000 -26.3720000 -14.7850000  24.3600000
 -25.4038423 -14.9340177  24.8380840 -26.4850405 -13.7206436  24.1539241
 -26.3350000 -15.5300000  23.0080000 -25.9659148 -16.5402154  23.1850337
 -27.3505687 -15.5929830  22.6171633 -25.4770000 -14.8980000  21.9890000
 -24.6652170 -14.3931387  22.3149194 -25.6860000 -14.9380000  20.6580000
 -26.6070000 -15.5930000  20.1660000 -24.7480000 -14.1820000  19.8210000
 -24.3510000 -14.8670000  18.6810000 -24.5809431 -15.8479119  18.6100211
 -23.6470000 -14.2720000  17.6210000 -23.4200000 -14.9780000  16.4250000
 -23.8290000 -16.3020000  16.3590000 -23.5440000 -17.0660000  15.1890000
 -23.9148872 -18.0826877  15.3189570 -22.4667059 -17.0910153  15.0249525
 -24.0322134 -16.6077925  14.3276205 -22.7760000 -14.3140000  15.3680000
 -22.6309998 -14.8219758  14.4260151 -22.3220000 -13.0060000  15.5240000
 -21.8241940 -12.5081837  14.7063148 -22.5090000 -12.3390000  16.7320000
 -22.1228990 -11.3376613  16.8530238 -23.1930000 -12.9510000  17.7960000
 -23.4380000 -12.1970000  19.0810000 -22.9610000 -11.0720000  19.2610000
 -24.3200000 -12.9050000  20.0580000 -24.7760000 -12.0130000  21.2260000
 -24.5469251 -10.9716009  20.9999192 -25.8506347 -12.1249617  21.3699610
 -24.2538069 -12.3111183  22.1363410 -12.9810000 -14.7690000   8.8500000
 -14.9590000 -16.7380000   8.3440000 -15.4320000 -15.3650000   7.9560000
 -16.8250000 -15.5200000   6.9760000 -14.4640000 -14.3840000   7.3380000
 -16.1930000 -14.5670000   9.4620000 -16.8450000 -13.7510000   9.1510000
 -16.7740000 -15.3080000  10.0110000 -14.8450000 -13.9010000  10.5560000
 -14.3890000 -12.5830000   9.9880000 -13.8500000 -15.0220000  10.7880000
 -15.7030000 -13.6140000  12.0010000 -15.3850000 -12.9000000  13.5190000
 -15.3770000 -11.4020000  13.3330000 -14.2190000 -13.6470000  14.1270000
 -16.8180000 -13.3630000  14.3660000 -18.0490000 -12.7570000  14.0050000
 -18.7610000 -13.5390000  13.7400000 -17.8880000 -12.1140000  13.1400000
 -18.6400000 -11.9150000  15.1540000 -17.8300000 -10.6860000  15.5860000
 -18.6730000  -9.6200000  15.9980000 -18.1350000  -8.8690000  16.2610000
 -16.9370000 -11.2240000  16.7000000 -16.4990000 -10.3110000  17.6820000
 -15.8940000  -9.6800000  17.2860000 -16.0840000 -11.7510000  16.2730000
 -17.2080000 -10.3530000  14.7550000 -19.6470000 -11.5990000  14.8820000
 -18.7070000 -12.7290000  16.3260000 -17.8950000 -12.2180000  17.3420000
 -18.5400000 -11.6530000  18.0140000 -17.2520000 -13.3190000  18.1620000
 -16.2140000 -14.1080000  17.8160000 -15.7550000 -14.0820000  16.8390000
 -15.8130000 -14.9090000  18.7730000 -16.5810000 -14.5670000  19.8190000
 -16.5490000 -15.0800000  21.1730000 -15.8570000 -15.9830000  21.6330000
 -17.4690000 -14.4030000  21.9310000 -17.5300000 -14.6720000  22.9020000
 -18.3230000 -13.3950000  21.5230000 -19.1010000 -12.8700000  22.4710000
 -19.0440000 -13.2140000  23.4190000 -19.7470000 -12.1290000  22.2410000
 -18.3770000 -12.9720000  20.3040000 -17.4740000 -13.5870000  19.4840000
