default_name
 23152
  57.1308757  28.5753293  34.4543249  57.6658757  28.8443293  35.2553249
  57.7488757  28.4683293  33.6753249  56.5188757  27.8283293  34.7133249
  56.2468757  29.6973293  34.0973249  55.5228757  29.8593293  34.9093249
  57.0428757  31.0043293  33.8763249  57.6268757  31.1843293  34.7903249
  57.7268757  30.8263293  33.0333249  56.1698757  32.2333293  33.5763249
  55.6958757  32.0603293  32.5993249  55.3958757  32.2773293  34.3563249
  57.0638757  33.8093293  33.5343249  57.9468757  33.6403293  31.9603249
  57.2208757  33.5193293  31.1433249  58.5528757  34.5403293  31.7803249
  58.6028757  32.7583293  32.0003249  55.4308757  29.2603293  32.8583249
  56.0128757  29.0103293  31.8003249  54.1018757  29.1633293  33.0283249
  53.7248757  29.5363293  33.8763249  53.1768757  28.5773293  32.0553249
  53.6768757  28.3653293  31.0993249  52.6078757  27.2463293  32.6233249
  52.1698757  27.4973293  33.6003249  51.5558757  26.5293293  31.7593249
  51.9928757  26.2783293  30.7813249  51.2328757  25.6063293  32.2643249
  50.6888757  27.1903293  31.6133249  53.6668757  26.3333293  32.8293249
  53.3018757  25.4773293  33.1953249  51.9958757  29.5313293  31.7973249
  51.4688757  30.1173293  32.7443249  51.5778757  29.6383293  30.5233249
  52.1458757  29.2283293  29.8093249  50.3688757  30.3583293  30.1193249
  50.2358757  31.2433293  30.7583249  50.4698757  30.8203293  28.6533249
  50.7188757  29.9363293  28.0483249  49.4788757  31.1973293  28.3603249
  51.5258757  31.9173293  28.4173249  51.2848757  32.7413293  29.1043249
  52.5118757  31.5023293  28.6743249  51.5538757  32.4443293  26.9773249
  52.4328757  33.2933293  26.7153249  50.7018757  32.0163293  26.1653249
  49.1148757  29.4913293  30.2993249  49.1368757  28.3003293  29.9853249
  48.0398757  30.1403293  30.7643249  48.1868757  31.0813293  31.0683249
  46.7108757  29.5653293  30.9183249  46.6508757  28.5983293  30.3973249
  46.4168757  29.3383293  32.4153249  46.6968757  30.2403293  32.9793249
  45.3308757  29.1793293  32.4943249  47.1468757  28.1373293  32.9883249
  46.5898757  26.8523293  32.8433249  45.6128757  26.7383293  32.3503249
  47.2718757  25.7193293  33.3233249  46.8288757  24.7193293  33.2103249
  48.5208757  25.8683293  33.9523249  49.1848757  24.7663293  34.4013249
  48.6898757  23.9143293  34.2293249  49.0778757  27.1533293  34.1093249
  50.0508757  27.2693293  34.6093249  48.3938757  28.2873293  33.6283249
  48.8328757  29.2883293  33.7523249  45.7198757  30.5193293  30.2503249
  45.3638757  31.5423293  30.8353249  45.3218757  30.1653293  29.0193249
  45.7998757  29.3873293  28.6113249  44.3608757  30.8963293  28.1973249
  44.4588757  31.9793293  28.3643249  44.6358757  30.5993293  26.7073249
  44.9058757  29.5373293  26.6073249  43.7168757  30.7983293  26.1373249
  45.7778757  31.4723293  26.1593249  45.3868757  32.4953293  26.0593249
  46.5848757  31.4603293  26.9063249  46.3268757  30.9993293  24.8053249
  46.9658757  30.1253293  25.0003249  45.4648757  30.6943293  24.1933249
  47.1388757  32.0703293  24.0523249  47.6248757  31.5793293  23.1963249
  46.4308757  32.8283293  23.6863249  48.1628757  32.7193293  24.8933249
  47.7318757  33.4193293  25.4633249  48.5968757  32.0343293  25.4783249
  48.8538757  33.1453293  24.3093249  42.9228757  30.5993293  28.6373249
  42.2548757  29.7403293  28.0623249  42.4878757  31.3313293  29.6733249
  43.1608757  31.9143293  30.1273249  41.1268757  31.3083293  30.1973249
  40.7478757  30.2763293  30.2303249  41.1178757  31.8853293  31.6353249
  41.3718757  32.9343293  31.4253249  40.1128757  31.8343293  32.0793249
  42.1518757  31.2923293  32.6273249  43.1608757  31.4933293  32.2383249
  42.0098757  31.9113293  34.0323249  41.0008757  31.7103293  34.4213249
  42.7578757  31.4673293  34.7063249  42.1698757  32.9983293  33.9723249
  42.1428757  29.7553293  32.6803249  42.3758757  29.3523293  31.6833249
  42.8978757  29.4083293  33.4013249  41.1488757  29.4043293  32.9943249
  40.1968757  32.1223293  29.2803249  40.6378757  33.0683293  28.6293249
  38.9158757  31.7443293  29.2563249  38.6648757  30.9303293  29.7803249
  37.8638757  32.4593293  28.5393249  38.1558757  33.4953293  28.3103249
  37.4658757  31.7483293  27.2093249  37.1068757  30.7413293  27.4683249
  36.3758757  32.4933293  26.4143249  36.7348757  33.4993293  26.1543249
  36.1478757  31.9363293  25.4933249  35.4658757  32.5763293  27.0273249
  38.6748757  31.5163293  26.2863249  39.4148757  30.8853293  26.8013249
  38.3428757  31.0133293  25.3663249  39.1328757  32.4833293  26.0313249
  36.6368757  32.4853293  29.4573249  36.3608757  31.4833293  30.1143249
  35.9218757  33.6173293  29.4833249  36.2548757  34.4043293  28.9633249
  34.6818757  33.7613293  30.2393249  34.5638757  32.9183293  30.9353249
  34.6268757  35.0883293  31.0513249  34.3988757  35.9133293  30.3603249
  33.5498757  35.0273293  32.1493249  33.7768757  34.2033293  32.8413249
  33.5368757  35.9773293  32.7033249  32.5648757  34.8583293  31.6893249
  35.9728757  35.4293293  31.7143249  36.7468757  35.5383293  30.9403249
  35.8788757  36.3723293  32.2723249  36.2578757  34.6213293  32.4043249
  33.5198757  33.7373293  29.2313249  33.5318757  34.5103293  28.2713249
  32.5598757  32.8293293  29.4633249  32.6508757  32.2983293  30.3063249
  31.4208757  32.5483293  28.5853249  31.2128757  33.3113293  27.8203249
  31.5858757  31.1683293  27.8803249  30.6668757  30.9603293  27.3123249
  32.7918757  31.1483293  26.9283249  33.7108757  31.3553293  27.4953249
  32.8698757  30.1583293  26.4553249  32.6598757  31.9163293  26.1523249
  31.6198757  29.9533293  28.8283249  30.6798757  29.9063293  29.3983249
  31.7378757  29.0313293  28.2393249  32.4658757  30.0543293  29.5243249
  30.1008757  32.5403293  29.3823249  30.1208757  32.4583293  30.6113249
  28.9788757  32.6503293  28.6563249  29.0788757  32.6473293  27.6613249
  27.6338757  32.7733293  29.2183249  27.0738757  31.8393293  29.0653249
  27.6938757  32.9923293  30.2943249  26.8938757  33.9193293  28.5153249
  27.4528757  34.6033293  27.6563249  25.6168757  34.1133293  28.8823249
  25.2648757  33.4853293  29.5763249  24.6968757  35.1043293  28.3073249
  24.6748757  34.9573293  27.2173249  23.2938757  34.8223293  28.8693249
  23.2968757  34.9743293  29.9583249  22.5688757  35.5073293  28.4063249
  23.0108757  33.7833293  28.6453249  25.1038757  36.5713293  28.5633249
  26.0198757  36.8343293  29.3423249  24.4138757  37.5103293  27.8923249
  23.7708757  37.1953293  27.1943249  24.6118757  38.9553293  28.0553249
  25.6868757  39.1863293  28.0143249  23.8908757  39.7453293  26.9323249
  24.1518757  39.3143293  25.9543249  22.8268757  39.5583293  27.1423249
  24.1508757  41.2613293  26.9103249  25.1978757  41.6983293  27.4383249
  23.3298757  41.9663293  26.2883249  24.1498757  39.4103293  29.4573249
  23.0458757  39.0623293  29.8773249  25.0018757  40.2013293  30.1273249
  25.9098757  40.3373293  29.7303249  24.6908757  40.8703293  31.3883249
  25.3338757  41.7593293  31.4623249  23.6368757  41.1823293  31.3493249
  24.9068757  39.9933293  32.6313249  24.5668757  40.4393293  33.7253249
  25.4578757  38.7733293  32.4953249  25.6518757  38.4623293  31.5653249
  25.7158757  37.8473293  33.6083249  24.9368757  37.8123293  34.3843249
  25.9768757  36.4053293  33.1023249  26.2108757  35.7683293  33.9683249
  24.7558757  35.8403293  32.3673249  24.5218757  36.4773293  31.5013249
  24.9748757  34.8183293  32.0233249  23.8938757  35.8193293  33.0503249
  27.2638757  36.2453293  32.2743249  28.1318757  36.5323293  32.8863249
  27.3688757  35.1973293  31.9583249  27.2118757  36.8923293  31.3863249
  26.8848757  38.2623293  34.5343249  27.0038757  37.7023293  35.6243249
  27.6818757  39.2593293  34.1143249  27.5768757  39.5743293  33.1713249
  28.6858757  39.9053293  34.9513249  28.5638757  40.9933293  34.8483249
  28.4968757  39.6123293  35.9943249  30.1228757  39.5273293  34.5803249
  31.0038757  39.6733293  35.4243249  30.3718757  39.0643293  33.3403249
  29.5718757  38.9113293  32.7603249  31.6918757  38.6653293  32.8283249
  32.1198757  37.8793293  33.4683249  31.5658757  38.1163293  31.3903249
  31.2398757  38.9433293  30.7423249  32.5618757  37.7733293  31.0723249
  30.5648757  36.9543293  31.2813249  30.6778757  36.3503293  32.1933249
  29.5598757  37.4003293  31.2603249  30.7538757  36.0603293  30.0483249
  31.8028757  35.7293293  30.0663249  30.0938757  35.1923293  30.1933249
  30.4488757  36.7113293  28.7003249  30.9728757  37.6773293  28.6543249
  30.8238757  36.0523293  27.9033249  29.0078757  36.9273293  28.5183249
  28.5888757  37.1413293  29.4003249  28.8618757  37.6883293  27.8863249
  28.5918757  36.0993293  28.1433249  32.7628757  39.7733293  32.9003249
  33.9198757  39.5223293  33.2403249  32.2898757  41.2133293  32.5573249
  31.3718757  41.5013293  32.2853249  33.3978757  42.2493293  32.5583249
  34.2958757  41.8173293  32.0933249  32.9978757  43.5193293  31.7743249
  32.0508757  43.9083293  32.1773249  33.7848757  44.2783293  31.8933249
  32.8378757  43.2183293  30.4053249  32.5798757  44.0473293  29.9093249
  33.7768757  42.5743293  34.0193249  34.9708757  42.6453293  34.3023249
  32.7838757  42.7463293  34.9123249  31.8548757  42.7613293  34.5423249
  32.9648757  43.0013293  36.3403249  33.5088757  43.9533293  36.4313249
  31.5848757  43.1623293  36.9883249  31.0318757  42.2143293  36.9133249
  31.7058757  43.4333293  38.0473249  31.0258757  43.9543293  36.4693249
  33.7978757  41.9313293  37.0723249  34.6458757  42.3083293  37.8763249
  33.5738757  40.6383293  36.7623249  32.8038757  40.4513293  36.1523249
  34.3418757  39.4993293  37.2853249  34.3388757  39.5163293  38.3853249
  33.7108757  38.1693293  36.8103249  33.3658757  38.4213293  35.7973249
  34.4668757  37.3723293  36.7523249  32.5168757  37.6833293  37.6523249
  31.8418757  38.5323293  37.8383249  31.7508757  36.5693293  36.9123249
  32.4258757  35.7203293  36.7263249  30.9028757  36.2353293  37.5283249
  31.3768757  36.9553293  35.9533249  32.9628757  37.2483293  39.0653249
  33.4288757  38.1003293  39.5823249  32.0878757  36.9083293  39.6383249
  33.6898757  36.4263293  38.9843249  35.8188757  39.5283293  36.8693249
  36.6838757  39.3453293  37.7263249  36.0718757  39.7523293  35.5683249
  35.2888757  39.8543293  34.9553249  37.4148757  39.8103293  34.9923249
  37.9848757  38.9133293  35.2743249  37.3778757  39.9093293  33.4433249
  36.7438757  40.7753293  33.2003249  38.7478757  40.0693293  32.7613249
  39.3818757  39.2033293  33.0033249  38.6108757  40.1303293  31.6713249
  39.2318757  40.9893293  33.1203249  36.7718757  38.7443293  32.9213249
  36.7448757  38.8013293  31.9233249  38.2218757  40.9983293  35.5413249
  39.3508757  40.8013293  35.9773249  37.6158757  42.1943293  35.5603249
  36.7118757  42.2523293  35.1363249  38.2388757  43.4293293  36.0373249
  39.2848757  43.5223293  35.7083249  37.4288757  44.6673293  35.5473249
  36.3778757  44.4813293  35.8143249  37.8778757  46.0173293  36.1383249
  38.9288757  46.2043293  35.8713249  37.2488757  46.8233293  35.7333249
  37.7778757  45.9903293  37.2333249  37.4638757  44.7543293  33.9983249
  38.4428757  45.1713293  33.7203249  37.3808757  43.7263293  33.6163249
  36.3498757  45.6173293  33.3903249  36.4318757  46.6453293  33.7723249
  36.4478757  45.6253293  32.2943249  35.3698757  45.2003293  33.6673249
  38.4538757  43.4453293  37.5723249  39.3988757  44.0873293  38.0283249
  37.6458757  42.6803293  38.3313249  36.8048757  42.3483293  37.9033249
  37.8368757  42.4413293  39.7663249  38.1738757  43.3613293  40.2653249
  36.4928757  42.0003293  40.3963249  35.7888757  42.8183293  40.1853249
  36.1888757  41.1023293  39.8383249  36.4848757  41.6923293  41.9103249
  35.4738757  41.3393293  42.1603249  37.2138757  40.8953293  42.1183249
  36.8148757  42.9003293  42.7963249  37.9778757  43.2373293  43.0013249
  35.7888757  43.5463293  43.3513249  35.9588757  44.3393293  43.9363249
  34.8538757  43.2343293  43.1803249  39.0068757  41.4823293  40.0723249
  39.6178757  41.6233293  41.1283249  39.3438757  40.5603293  39.1533249
  38.7218757  40.3873293  38.3893249  40.5528757  39.7403293  39.2653249
  40.7118757  39.4523293  40.3153249  40.4138757  38.4543293  38.4153249
  39.5058757  38.0143293  38.8533249  40.2478757  38.6503293  37.3453249
  41.5978757  37.4673293  38.5813249  42.5348757  38.0353293  38.4823249
  41.5708757  36.7563293  39.9453249  40.6338757  36.1883293  40.0443249
  42.4268757  36.0693293  40.0183249  41.6328757  37.5033293  40.7503249
  41.7068757  36.4903293  37.4003249  41.8598757  37.0553293  36.4693249
  42.5578757  35.8123293  37.5613249  40.7798757  35.9023293  37.3223249
  41.8048757  40.5383293  38.8563249  42.7768757  40.5753293  39.6113249
  41.7638757  41.1003293  37.6373249  40.8798757  41.0763293  37.1713249
  42.9048757  41.6753293  36.9293249  43.8648757  41.1543293  37.0583249
  42.5998757  41.8353293  35.4053249  41.6458757  42.3763293  35.3243249
  43.6888757  42.5903293  34.6093249  44.6438757  42.0493293  34.6893249
  43.3918757  42.6563293  33.5523249  43.8068757  43.6043293  35.0203249
  42.2098757  40.4973293  34.7153249  41.5078757  40.0043293  35.4043249
  41.6788757  40.7853293  33.7963249  43.3468757  39.5313293  34.3673249
  43.8788757  39.2433293  35.2863249  42.9308757  38.6333293  33.8883249
  44.0488757  40.0233293  33.6773249  43.3328757  43.0363293  37.5153249
  44.4988757  43.1863293  37.8783249  42.3858757  43.9883293  37.5883249
  41.4638757  43.7353293  37.2953249  42.6278757  45.3743293  38.0043249
  43.6968757  45.6173293  37.9123249  41.8238757  46.3343293  37.1023249
  40.7578757  46.1383293  37.2933249  42.0708757  47.3573293  37.4213249
  42.1128757  46.1813293  35.5933249  43.1978757  46.2743293  35.4353249
  41.7818757  45.1793293  35.2823249  41.3998757  47.2233293  34.7253249
  40.7748757  48.1583293  35.2233249  41.4978757  47.0663293  33.4043249
  41.0518757  47.7183293  32.7913249  42.0178757  46.2973293  33.0323249
  42.2808757  45.6303293  39.4843249  42.6238757  46.6973293  39.9903249
  41.6278757  44.6593293  40.1493249  41.2448757  43.9433293  39.5653249
  41.2808757  44.6523293  41.5773249  40.7288757  43.7293293  41.8093249
  42.5458757  44.7163293  42.4813249  43.0228757  45.6923293  42.3063249
  42.2348757  44.6443293  43.5343249  43.5698757  43.6113293  42.1963249
  43.2118757  42.4443293  42.0523249  44.8528757  43.9733293  42.1343249
  45.5548757  43.2853293  41.9513249  45.1058757  44.9303293  42.2723249
  40.2178757  45.7053293  41.9563249  40.3668757  46.3793293  42.9753249
  39.1448757  45.8043293  41.1513249  39.1798757  45.3323293  40.2593249
  37.9768757  46.6373293  41.4523249  37.7188757  46.5363293  42.5063249
  38.2668757  48.1293293  41.1543249  37.4338757  48.7293293  41.5203249
  39.1818757  48.4293293  41.6653249  38.4488757  48.4853293  39.6953249
  37.3928757  48.8973293  38.8953249  37.8898757  49.1173293  37.6803249
  37.1948757  49.4473293  36.9083249  39.1988757  48.8823293  37.6343249
  39.8198757  48.9643293  36.8413249  39.5818757  48.4913293  38.9053249
  40.6258757  48.2583293  39.1123249  36.7328757  46.1443293  40.7003249
  36.8498757  45.5993293  39.6033249  35.5558757  46.4143293  41.2843249
  35.5738757  46.7083293  42.2403249  34.2558757  46.2433293  40.6353249
  34.2188757  45.2963293  40.0763249  33.1668757  46.2133293  41.7303249
  33.3538757  45.4083293  42.4563249  33.2178757  47.1853293  42.2413249
  31.7298757  46.0463293  41.2543249  31.3638757  44.9353293  40.4663249
  32.1278757  44.2053293  40.1593249  30.0418757  44.7613293  40.0773249
  29.7648757  43.8983293  39.4533249  29.0728757  45.6713293  40.4733249
  28.0278757  45.5233293  40.1623249  29.4158757  46.7643293  41.2573249
  28.6368757  47.4763293  41.5673249  30.7328757  46.9623293  41.6503249
  30.9968757  47.8323293  42.2693249  33.9958757  47.3593293  39.6023249
  34.5158757  48.4673293  39.7533249  33.1708757  47.0433293  38.5953249
  32.9018757  46.0833293  38.5173249  32.6498757  47.9903293  37.6143249
  32.9368757  49.0273293  37.8453249  33.1438757  47.6463293  36.1773249
  32.9158757  46.5843293  36.0043249  32.5018757  48.4973293  35.0633249
  32.7298757  49.5593293  35.2353249  32.9058757  48.1893293  34.0873249
  31.4118757  48.3513293  35.0713249  34.6728757  47.7763293  36.0893249
  35.1418757  47.0843293  36.8033249  35.0038757  47.5303293  35.0693249
  34.9688757  48.8073293  36.3313249  31.1188757  47.8983293  37.6863249
  30.5518757  46.9023293  37.2363249  30.4928757  48.9253293  38.2893249
  31.0818757  49.6353293  38.6743249  29.0428757  49.0293293  38.5073249
  28.6388757  48.0523293  38.8123249  28.7398757  50.0613293  39.6253249
  29.5368757  50.0443293  40.3833249  28.7758757  51.0143293  39.0773249
  27.3738757  49.9193293  40.3163249  26.7888757  48.8143293  40.2783249
  26.9768757  50.9103293  40.9673249  28.2838757  49.3673293  37.2013249
  27.0968757  49.0623293  37.0883249  28.9988757  49.9563293  36.2293249
  29.9278757  50.2163293  36.4923249  28.5478757  50.2743293  34.8783249
  27.5878757  50.8103293  34.9123249  29.5968757  51.1813293  34.1833249
  30.5298757  50.5993293  34.1633249  29.2338757  51.3263293  33.1553249
  29.8638757  52.5613293  34.8363249  30.4138757  53.1473293  34.0853249
  28.8738757  53.0123293  34.9993249  30.6478757  52.5563293  36.1573249
  30.4658757  53.5283293  36.9213249  31.4128757  51.5923293  36.3893249
  28.3208757  49.0023293  34.0393249  28.9578757  47.9783293  34.2893249
  27.4438757  49.1183293  33.0303249  26.9158757  49.9663293  32.9893249
  27.1778757  48.0873293  32.0273249  27.7388757  47.1683293  32.2533249
  25.6648757  47.7603293  32.0483249  25.4298757  47.7003293  33.1213249
  25.1798757  48.6483293  31.6163249  25.1508757  46.5053293  31.3433249
  25.8488757  45.8653293  30.2903249  26.8278757  46.2553293  29.9743249
  25.2988757  44.7393293  29.6483249  25.8478757  44.2523293  28.8293249
  24.0528757  44.2323293  30.0583249  23.5048757  43.1573293  29.4253249
  24.0758757  42.8083293  28.6823249  23.3638757  44.8423293  31.1223249
  22.3988757  44.4353293  31.4593249  23.9098757  45.9743293  31.7563249
  23.3688757  46.4563293  32.5843249  27.6558757  48.6523293  30.6823249
  27.0808757  49.6273293  30.1953249  28.7018757  48.0273293  30.1213249
  29.1118757  47.2813293  30.6463249  29.3208757  48.4033293  28.8523249
  28.6138757  48.9963293  28.2543249  30.5958757  49.2533293  29.0993249
  30.3398757  50.0793293  29.7783249  31.2898757  48.5663293  29.6053249
  31.2628757  49.8163293  27.8363249  30.6328757  49.7723293  26.7563249
  32.3898757  50.3353293  27.9893249  29.6018757  47.0913293  28.0833249
  30.6358757  46.4763293  28.3463249  28.6688757  46.6483293  27.2003249
  27.4298757  47.3353293  26.8223249  27.6758757  48.3743293  26.5603249
  26.7518757  47.3273293  27.6883249  26.8728757  46.5493293  25.6403249
  27.2428757  46.9593293  24.6893249  25.7728757  46.5673293  25.6423249
  27.3918757  45.1433293  25.8783249  27.4978757  44.5923293  24.9323249
  26.7358757  44.5803293  26.5583249  28.7728757  45.3403293  26.5253249
  28.9188757  44.5733293  27.3003249  29.9348757  45.2773293  25.5153249
  29.8748757  45.8963293  24.4523249  30.9768757  44.5313293  25.9063249
  30.8778757  44.1103293  26.8083249  32.2088757  44.2863293  25.1593249
  32.6538757  45.1913293  24.7203249  33.2638757  43.6113293  26.0833249
  34.2018757  43.5293293  25.5153249  33.5168757  44.3963293  27.3793249
  32.5788757  44.4783293  27.9483249  34.2688757  43.8703293  27.9863249
  33.8848757  45.4033293  27.1333249  32.9558757  42.2643293  26.4113249
  33.6708757  41.8933293  27.0033249  31.9778757  43.3643293  23.9463249
  31.1068757  42.4953293  23.9943249  32.8058757  43.5443293  22.9033249
  33.3948757  44.3523293  22.9123249  32.8508757  42.6653293  21.7323249
  31.8598757  42.2453293  21.5043249  33.4108757  43.3913293  20.4703249
  34.3658757  43.8563293  20.7553249  33.6358757  42.4503293  19.2613249
  32.6808757  41.9853293  18.9743249  34.0298757  43.0293293  18.4133249
  34.3568757  41.6663293  19.5353249  32.4848757  44.5643293  20.0713249
  31.5308757  44.1243293  19.7443249  32.3178757  45.1653293  20.9773249
  33.0428757  45.4623293  18.9573249  33.2078757  44.8623293  18.0503249
  32.3238757  46.2653293  18.7383249  33.9958757  45.9033293  19.2843249
  33.6978757  41.4183293  22.0523249  33.1778757  40.3073293  21.9653249
  34.9598757  41.6443293  22.4583249  35.2768757  42.5873293  22.3533249
  35.9128757  40.6413293  22.9293249  35.5078757  40.1603293  23.8313249
  36.1868757  39.5483293  21.8643249  35.2248757  39.0633293  21.6423249
  36.5558757  40.0593293  20.9633249  37.2078757  38.4843293  22.3053249
  38.1838757  38.9823293  22.3963249  36.9048757  38.0913293  23.2873249
  37.3148757  37.3343293  21.3073249  36.2808757  36.6613293  21.1053249
  38.4268757  37.1343293  20.7733249  37.1868757  41.3743293  23.3773249
  37.9478757  41.8293293  22.5223249  37.3768757  41.4853293  24.7023249
  36.6758757  41.0863293  25.2923249  38.5008757  42.1853293  25.3333249
  39.0748757  42.6983293  24.5473249  38.0598757  43.2333293  26.3883249
  37.6198757  42.6363293  27.2013249  38.9768757  43.7233293  26.7483249
  37.0548757  44.3003293  25.9353249  36.7388757  44.3703293  24.7263249
  36.6328757  45.0633293  26.8303249  39.4408757  41.1683293  25.9963249
  38.9808757  40.3353293  26.7763249  40.6438757  41.4083293  25.9213249
  41.1078757  42.1143293  25.3863249  41.4598757  40.4323293  26.6363249
  40.7928757  39.7243293  27.1503249  42.3848757  39.6483293  25.7123249
  42.8058757  38.8073293  26.2833249  41.7838757  39.2603293  24.8773249
  43.4388757  40.4473293  25.2033249  44.0178757  39.8933293  24.6043249
  42.2208757  41.1543293  27.7393249  42.5548757  42.3443293  27.6103249
  42.7918757  40.3813293  28.5313249  42.8228757  39.4113293  28.2883249
  43.3898757  40.7983293  29.8003249  43.8188757  41.8073293  29.7073249
  42.3038757  40.8233293  30.8973249  41.8438757  39.8243293  30.9143249
  42.8458757  40.9933293  31.8393249  41.2198757  41.8783293  30.7393249
  40.0418757  41.5863293  30.0203249  39.9198757  40.6003293  29.5473249
  39.0238757  42.5533293  29.9073249  38.1038757  42.3143293  29.3543249
  39.1778757  43.8183293  30.5023249  38.1908757  44.7523293  30.3843249
  37.4068757  44.4273293  29.8553249  40.3548757  44.1163293  31.2143249
  40.4778757  45.1043293  31.6813249  41.3738757  43.1513293  31.3293249
  42.2958757  43.3873293  31.8813249  44.5208757  39.8243293  30.1783249
  44.5568757  38.7063293  29.6663249  45.4198757  40.2643293  31.0753249
  45.3128757  41.1983293  31.4163249  46.5918757  39.4963293  31.5093249
  46.3998757  38.4183293  31.4013249  47.8158757  39.8703293  30.6383249
  48.6358757  39.2093293  30.9553249  47.5398757  39.6383293  29.5993249
  48.2748757  41.3403293  30.7323249  47.4148757  41.9773293  30.4783249
  48.5768757  41.5313293  31.7723249  49.4448757  41.6623293  29.7933249
  50.2388757  40.9143293  29.9333249  49.0928757  41.6313293  28.7513249
  50.0008757  42.9973293  30.0633249  49.6928757  43.7293293  29.4553249
  50.8708757  43.3003293  31.0413249  51.3548757  42.3583293  31.8633249
  51.0668757  41.4073293  31.7533249  52.0018757  42.6103293  32.5833249
  51.2628757  44.5713293  31.1983249  50.9068757  45.2803293  30.5893249
  51.9098757  44.8063293  31.9233249  46.8558757  39.7113293  33.0083249
  46.6998757  40.8293293  33.5023249  47.2808757  38.6363293  33.6933249
  47.2898757  37.7633293  33.2063249  47.6388757  38.6423293  35.1103249
  48.1728757  39.5713293  35.3573249  46.3668757  38.5543293  35.9863249
  45.7728757  39.4513293  35.7563249  45.8228757  37.6593293  35.6503249
  46.6028757  38.4703293  37.5083249  47.3188757  37.6593293  37.7053249
  47.0298757  39.4253293  37.8473249  45.2968757  38.1953293  38.2673249
  44.5648757  38.9483293  37.9393249  44.9518757  37.1953293  37.9673249
  45.4378757  38.2513293  39.7963249  44.5518757  37.7783293  40.2443249
  46.3378757  37.6883293  40.0833249  45.5518757  39.6373293  40.2803249
  44.6838757  40.1123293  40.1363249  45.7718757  39.6323293  41.2563249
  46.2778757  40.1073293  39.7773249  48.6268757  37.5043293  35.3883249
  48.2258757  36.3413293  35.3923249  49.8868757  37.8723293  35.6623249
  50.1438757  38.8153293  35.4513249  50.9128757  36.9763293  36.1873249
  50.8248757  35.9753293  35.7403249  52.2948757  37.5583293  35.8253249
  52.3338757  37.6283293  34.7283249  52.3378757  38.5683293  36.2583249
  53.4938757  36.7313293  36.3303249  53.4988757  36.7123293  37.4303249
  53.3848757  35.7063293  35.9473249  54.8308757  37.2943293  35.8453249
  55.0458757  38.5043293  35.8603249  55.7488757  36.4193293  35.4343249
  56.6358757  36.7463293  35.1093249  55.5458757  35.4403293  35.4533249
  50.7128757  36.8223293  37.7043249  50.7818757  37.8213293  38.4223249
  50.4618757  35.5853293  38.1573249  50.3848757  34.8493293  37.4843249
  50.2188757  35.2673293  39.5633249  50.9248757  35.7393293  40.2613249
  48.7658757  35.6293293  40.0023249  48.6488757  36.7143293  39.8633249
  47.6608757  34.8893293  39.2213249  47.7768757  33.8043293  39.3603249
  46.6748757  35.2033293  39.5933249  47.7418757  35.1313293  38.1513249
  48.5368757  35.4623293  41.5163249  49.2258757  36.1203293  42.0663249
  47.4988757  35.7323293  41.7623249  48.7218757  34.4163293  41.8033249
  50.5138757  33.7823293  39.8293249  50.1558757  32.9293293  39.0173249
  51.1688757  33.5043293  40.9683249  51.4698757  34.2723293  41.5333249
  51.5178757  32.1523293  41.3963249  51.8498757  31.5273293  40.5543249
  52.6338757  32.1583293  42.4803249  52.3098757  32.8463293  43.2743249
  52.9298757  30.7713293  43.0913249  53.2548757  30.0823293  42.2983249
  53.7258757  30.8643293  43.8443249  52.0198757  30.3773293  43.5673249
  53.9388757  32.7473293  41.9143249  53.7608757  33.7803293  41.5813249
  54.7128757  32.7423293  42.6953249  54.2758757  32.1413293  41.0603249
  50.2768757  31.4103293  41.9283249  49.6318757  31.8883293  42.8613249
  49.9888757  30.2543293  41.3123249  50.5708757  30.0083293  40.5373249
  48.9118757  29.3443293  41.6853249  48.4618757  29.6033293  42.6553249
  47.7958757  29.2763293  40.5953249  48.2878757  29.0553293  39.6363249
  46.7108757  28.2063293  40.8773249  46.2188757  28.4273293  41.8363249
  45.9638757  28.2193293  40.0703249  47.1788757  27.2123293  40.9263249
  47.1358757  30.6563293  40.3693249  46.4688757  30.8453293  41.2233249
  47.9398757  31.4073293  40.3593249  46.3348757  30.7483293  39.0663249
  45.5298757  29.9983293  39.0763249  45.8968757  31.7533293  38.9743249
  47.0008757  30.5593293  38.2113249  49.5558757  27.9603293  41.8513249
  49.9768757  27.3603293  40.8613249  49.6328757  27.4943293  43.1093249
  49.4458757  28.1663293  43.8253249  50.1568757  26.1773293  43.5083249
  50.1718757  26.1343293  44.6073249  49.3198757  24.9783293  42.9753249
  49.5828757  24.9123293  41.9093249  49.6418757  24.0603293  43.4893249
  47.8008757  25.1373293  43.1173249  47.3598757  25.7913293  44.0873249
  47.0888757  24.5483293  42.2753249  51.6688757  26.0053293  43.2333249
  52.1208757  24.8933293  42.9603249  52.4238757  27.1153293  43.3153249
  51.9478757  27.9673293  43.5343249  53.8728757  27.1633293  43.1103249
  54.2808757  27.9763293  43.7283249  54.2988757  26.2043293  43.4403249
  54.2638757  27.4063293  41.6413249  55.4248757  27.7233293  41.3863249
  53.3198757  27.2933293  40.6893249  52.4228757  26.9633293  40.9833249
  53.5248757  27.5733293  39.2683249  54.5858757  27.4643293  38.9983249
  52.6998757  26.5593293  38.4473249  53.0408757  25.5573293  38.7483249
  51.6488757  26.6923293  38.7443249  52.8248757  26.7073293  36.9143249
  52.5038757  27.7183293  36.6223249  53.8888757  26.5753293  36.6673249
  51.9928757  25.6703293  36.1573249  50.8248757  25.4643293  36.5513249
  52.5208757  25.1103293  35.1733249  53.1078757  29.0213293  38.9733249
  51.9848757  29.3983293  39.3093249  53.9998757  29.7903293  38.3263249
  54.9098757  29.4053293  38.1713249  53.7408757  31.1613293  37.8793249
  53.2148757  31.7173293  38.6693249  55.0578757  31.9073293  37.5413249
  55.5488757  31.3343293  36.7413249  54.8798757  33.3683293  37.0913249
  54.3888757  33.9413293  37.8913249  55.8648757  33.8083293  36.8753249
  54.2578757  33.3993293  36.1843249  55.8888757  31.9153293  38.6863249
  56.7408757  32.3943293  38.4773249  52.8128757  31.1473293  36.6463249
  53.2648757  30.8833293  35.5323249  51.5158757  31.3713293  36.9003249
  51.2798757  31.6503293  37.8313249  50.4338757  31.1943293  35.9363249
  50.7708757  30.5393293  35.1193249  49.2038757  30.5543293  36.6043249
  48.8938757  31.0933293  37.5113249  48.3498757  30.4733293  35.9163249
  49.5878757  28.8613293  37.1303249  48.4148757  28.6053293  37.6293249
  50.0668757  32.5523293  35.3233249  49.6028757  33.4403293  36.0413249
  50.2758757  32.6793293  34.0043249  50.7348757  31.9213293  33.5423249
  49.9358757  33.8663293  33.2203249  49.9488757  34.7583293  33.8633249
  50.9638757  34.0633293  32.0813249  51.1858757  33.0293293  31.7773249
  50.5208757  34.6073293  31.2343249  52.2708757  34.7643293  32.5163249
  52.0028757  35.7483293  32.9293249  53.0568757  33.9653293  33.5683249
  53.3258757  32.9813293  33.1563249  53.9728757  34.5123293  33.8373249
  52.4348757  33.8293293  34.4653249  53.1568757  35.0983293  31.2993249
  52.6098757  35.7683293  30.6193249  54.0768757  35.5953293  31.6403249
  53.4168757  34.1703293  30.7683249  48.5068757  33.6943293  32.6913249
  48.2958757  32.9653293  31.7223249  47.5538757  34.3433293  33.3803249
  47.8618757  34.9093293  34.1453249  46.1178757  34.2173293  33.1463249
  45.8798757  33.1983293  32.8063249  45.3418757  34.4953293  34.4553249
  45.5538757  35.5633293  34.6103249  44.2608757  34.3543293  34.3093249
  45.8018757  33.6943293  35.6933249  46.7958757  34.0533293  35.9973249
  44.8128757  33.8693293  36.8623249  43.8188757  33.5103293  36.5583249
  45.1628757  33.2903293  37.7293249  44.7498757  34.9333293  37.1343249
  46.0608757  32.2103293  35.3943249  46.8478757  32.1213293  34.6313249
  46.3838757  31.7013293  36.3143249  45.1368757  31.7443293  35.0233249
  45.6828757  35.1513293  32.0103249  45.3128757  36.2983293  32.2633249
  45.7548757  34.6283293  30.7763249  46.1798757  33.7253293  30.7123249
  45.3768757  35.3063293  29.5383249  45.5678757  36.3863293  29.6213249
  46.2178757  34.7423293  28.3633249  47.2768757  34.7393293  28.6603249
  45.8628757  33.7063293  28.2653249  46.0658757  35.4643293  27.0183249
  45.4808757  36.5693293  26.9903249  46.6068757  34.9083293  26.0363249
  43.8488757  35.1743293  29.3563249  43.3868757  34.3373293  28.5813249
  43.1028757  35.9713293  30.1393249  43.6058757  36.6253293  30.7043249
  41.6458757  35.9193293  30.2673249  41.2588757  34.8993293  30.1233249
  41.1948757  36.4533293  31.6593249  41.7488757  37.3883293  31.8293249
  39.6768757  36.7193293  31.8103249  39.1218757  35.7843293  31.6413249
  39.4678757  37.0913293  32.8243249  39.3608757  37.4713293  31.0723249
  41.6458757  35.4773293  32.7673249  40.8248757  34.7613293  32.9223249
  42.5308757  34.9443293  32.3893249  41.9878757  36.1533293  34.0923249
  41.1038757  36.6863293  34.4723249  42.2978757  35.3923293  34.8243249
  42.8088757  36.8693293  33.9383249  40.9558757  36.7183293  29.1523249
  41.3628757  37.8453293  28.8723249  39.9118757  36.1133293  28.5653249
  39.6788757  35.1943293  28.8843249  39.1528757  36.6723293  27.4533249
  39.5708757  37.6403293  27.1383249  39.2438757  35.6853293  26.2673249
  40.3228757  35.4743293  26.2293249  38.6958757  34.7543293  26.4753249
  38.7838757  36.2613293  24.9123249  37.7488757  36.6173293  25.0213249
  39.6848757  37.4293293  24.4503249  40.7198757  37.0733293  24.3403249
  39.3248757  37.8103293  23.4833249  39.6528757  38.2363293  25.1973249
  38.6778757  35.1443293  23.8513249  37.9478757  34.3913293  24.1833249
  38.3488757  35.5763293  22.8943249  39.6608757  34.6693293  23.7193249
  37.7068757  36.9483293  27.8983249  36.9358757  36.0143293  28.1163249
  37.3788757  38.2433293  28.0123249  38.1488757  38.8753293  27.9213249
  36.0608757  38.7963293  28.3173249  35.4818757  38.0983293  28.9393249
  36.2448757  40.1173293  29.0973249  36.7498757  39.8643293  30.0413249
  36.9338757  40.6843293  28.4543249  35.0048757  40.9703293  29.3943249
  33.8548757  40.4683293  29.3473249  35.2508757  42.1483293  29.7293249
  35.2958757  38.9703293  26.9933249  35.3728757  40.0253293  26.3643249
  34.5968757  37.9013293  26.5913249  34.6258757  37.0983293  27.1873249
  33.8368757  37.8133293  25.3453249  34.2888757  38.3483293  24.4973249
  33.6338757  36.3243293  24.9423249  33.1828757  36.3033293  23.9393249
  34.9508757  35.5343293  24.9283249  35.4018757  35.5543293  25.9313249
  34.7508757  34.4923293  24.6373249  35.6438757  35.9893293  24.2053249
  32.6738757  35.6433293  25.7333249  32.5948757  34.6963293  25.4213249
  32.4578757  38.4993293  25.4543249  32.0078757  38.8223293  26.5553249
  31.8088757  38.6903293  24.2943249  32.3208757  38.5473293  23.4473249
  30.4088757  39.0933293  24.1983249  30.1958757  39.9323293  24.8773249
  30.1098757  39.5383293  22.7613249  30.3088757  38.7063293  22.0703249
  29.0538757  39.8363293  22.6813249  30.7518757  40.3923293  22.5003249
  29.4718757  37.9333293  24.5633249  29.6588757  36.8183293  24.0723249
  28.4468757  38.2413293  25.3693249  28.4378757  39.1443293  25.7993249
  27.3428757  37.3293293  25.6533249  27.7138757  36.2943293  25.6143249
  26.9538757  37.5403293  26.6603249  26.2048757  37.4913293  24.6343249
  25.3028757  36.6553293  24.6073249  26.2458757  38.5553293  23.8133249
  27.0138757  39.1793293  23.9563249  25.2588757  38.8953293  22.7923249
  24.2378757  38.7603293  23.1783249  25.4448757  40.3743293  22.3973249
  26.4908757  40.5173293  22.0873249  24.7788757  40.5893293  21.5483249
  25.1188757  41.3283293  23.5593249  24.0768757  41.1313293  23.8533249
  25.7868757  41.0953293  24.4013249  25.2588757  42.8123293  23.2213249
  25.8648757  43.1903293  22.2203249  24.7048757  43.6633293  24.0863249
  24.7618757  44.6483293  23.9213249  24.2348757  43.3123293  24.8963249
  25.3648757  37.9893293  21.5583249  26.4728757  37.6583293  21.1313249
  24.1958757  37.6463293  20.9913249  23.3658757  37.9263293  21.4733249
  24.0568757  36.8003293  19.8023249  24.7548757  35.9523293  19.8593249
  22.6148757  36.2483293  19.7133249  21.9638757  37.1093293  19.5003249
  22.5978757  35.5563293  18.8583249  22.1058757  35.5173293  20.9773249
  21.9918757  36.2443293  21.7943249  21.1198757  35.1113293  20.7073249
  23.0188757  34.3773293  21.4333249  23.2168757  33.4333293  20.6373249
  23.5458757  34.4843293  22.5613249  24.4768757  37.4883293  18.4873249
  24.6798757  36.7923293  17.4933249  24.6568757  38.8223293  18.5193249
  24.2828757  39.2853293  19.3223249  25.2628757  39.6403293  17.4633249
  24.7238757  39.5243293  16.5113249  25.1698757  41.1223293  17.9083249
  24.0958757  41.3273293  18.0253249  25.6598757  41.1643293  18.8923249
  25.7978757  42.1833293  16.9733249  25.6598757  43.1523293  17.4763249
  26.8728757  41.9623293  16.8943249  25.1848757  42.2443293  15.5703249
  25.9288757  42.6423293  14.6483249  23.9848757  41.9133293  15.4403249
  26.7128757  39.2253293  17.1313249  27.1338757  39.3593293  15.9833249
  27.4318757  38.7143293  18.1443249  26.9668757  38.6723293  19.0283249
  28.8348757  38.3103293  18.0793249  29.2568757  38.5133293  17.0843249
  29.6198757  39.1303293  19.1243249  29.2798757  38.8433293  20.1303249
  30.6728757  38.8373293  18.9963249  29.4878757  40.6363293  18.9553249
  30.0778757  41.2763293  17.8463249  30.6748757  40.6913293  17.1323249
  29.9048757  42.6603293  17.6523249  30.3598757  43.1543293  16.7813249
  29.1428757  43.4113293  18.5703249  28.9678757  44.7503293  18.3813249
  29.4238757  45.0923293  17.5593249  28.5668757  42.7783293  19.6883249
  27.9838757  43.3653293  20.4133249  28.7378757  41.3943293  19.8793249
  28.2858757  40.8993293  20.7513249  29.0008757  36.7893293  18.2723249
  30.0838757  36.3463293  18.6593249  27.9458757  36.0063293  17.9733249
  27.0788757  36.4743293  17.8033249  27.9438757  34.5403293  18.0403249
  28.4048757  34.2073293  18.9823249  26.4978757  34.0073293  17.9843249
  26.5238757  32.9313293  18.2113249  25.9128757  34.5303293  18.7553249
  25.8958757  34.2073293  16.7203249  24.9628757  33.8463293  16.7353249
  28.8598757  33.8373293  17.0183249  29.2208757  32.6843293  17.2503249
  29.2458757  34.5383293  15.9373249  28.8028757  35.4233293  15.7933249
  30.2008757  34.0673293  14.9303249  29.8808757  33.0643293  14.6103249
  30.1448757  35.0103293  13.7193249  30.4708757  36.0163293  14.0223249
  30.8088757  34.6323293  12.9283249  29.1138757  35.0583293  13.3393249
  31.6458757  33.9443293  15.4523249  32.4088757  33.1483293  14.9053249
  31.9898757  34.7143293  16.5013249  31.3108757  35.3783293  16.8133249
  33.2988757  34.6983293  17.1593249  34.0988757  34.6873293  16.4043249
  33.4658757  35.9583293  18.0383249  32.7618757  35.8603293  18.8773249
  34.4968757  35.9483293  18.4223249  33.2058757  37.2853293  17.3033249
  33.8488757  37.2913293  16.4113249  32.1508757  37.2813293  16.9933249
  33.5338757  38.7753293  18.2843249  35.3448757  38.8013293  18.2393249
  35.6848757  38.8733293  17.1953249  35.7148757  39.6693293  18.8043249
  35.7368757  37.8773293  18.6903249  33.5388757  33.4313293  18.0013249
  34.6958757  33.0553293  18.1833249  32.4518757  32.8113293  18.4983249
  31.5798757  33.2523293  18.2843249  32.4418757  31.6483293  19.3903249
  33.0058757  31.8663293  20.3093249  30.9888757  31.3093293  19.7743249
  30.4428757  31.0903293  18.8453249  31.0138757  30.4083293  20.4053249
  30.2788757  32.4453293  20.5303249  30.8668757  32.6583293  21.4353249
  30.2798757  33.3293293  19.8763249  28.8368757  32.1053293  20.9263249
  28.2848757  31.7503293  20.0433249  28.8408757  31.3203293  21.6963249
  28.1528757  33.2883293  21.4643249  28.7528757  34.0313293  21.7603249
  26.8258757  33.4433293  21.5993249  25.9638757  32.4823293  21.2383249
  26.3078757  31.6243293  20.8573249  24.9808757  32.6283293  21.3513249
  26.3488757  34.5903293  22.0943249  26.9808757  35.3183293  22.3583249
  25.3618757  34.7143293  22.1983249  33.1738757  30.4243293  18.8243249
  34.0368757  29.8803293  19.5103249  32.8698757  30.0533293  17.5703249
  32.0758757  30.4923293  17.1493249  33.4948757  28.9233293  16.8693249
  33.5788757  28.0813293  17.5723249  32.6928757  28.4543293  15.6283249
  32.7618757  29.3173293  14.9493249  33.1918757  27.5873293  15.1703249
  31.2148757  28.1193293  15.8823249  30.8538757  27.8313293  17.0453249
  30.4718757  28.0743293  14.8783249  34.9928757  29.1113293  16.5333249
  35.6128757  28.1443293  16.0933249  35.5518757  30.3123293  16.7723249
  34.9218757  31.0593293  16.9843249  36.9748757  30.6223293  16.6343249
  37.5008757  29.7993293  16.1283249  37.1358757  31.9063293  15.7853249
  36.7028757  31.6723293  14.8013249  36.5228757  32.6733293  16.2823249
  38.5778757  32.4383293  15.6013249  38.5498757  33.3393293  14.9703249
  38.9518757  32.7033293  16.6013249  39.5418757  31.4273293  14.9693249
  39.1768757  30.6973293  14.0513249  40.7888757  31.4003293  15.4433249
  41.4518757  30.7573293  15.0613249  41.0538757  32.0243293  16.1783249
  37.6738757  30.7193293  18.0043249  38.7308757  30.1043293  18.1643249
  37.0998757  31.4773293  18.9623249  36.3068757  32.0303293  18.7073249
  37.7158757  31.7073293  20.2783249  38.7998757  31.8433293  20.1463249
  37.1398757  32.9653293  20.9843249  37.8938757  33.3073293  21.7083249
  37.1178757  33.6533293  20.1263249  35.7628757  32.9403293  21.6533249
  35.4758757  32.0803293  22.7383249  36.2428757  31.3683293  23.0773249
  34.2258757  32.1283293  23.3833249  33.9868757  31.3983293  24.1703249
  33.2678757  33.0803293  22.9923249  32.0898757  33.1723293  23.6723249
  32.0198757  32.5163293  24.4243249  33.5488757  33.9603293  21.9313249
  32.8058757  34.7113293  21.6253249  34.7848757  33.8783293  21.2603249
  34.9988757  34.5513293  20.4173249  37.7558757  30.4573293  21.1743249
  38.6438757  30.3703293  22.0203249  36.8178757  29.5153293  20.9753249
  36.0728757  29.7323293  20.3443249  36.7518757  28.2563293  21.7203249
  36.9888757  28.4323293  22.7803249  35.3338757  27.6623293  21.6253249
  35.0848757  27.5593293  20.5593249  35.3548757  26.6673293  22.0943249
  34.2718757  28.5323293  22.3173249  34.4178757  28.4243293  23.4023249
  34.4628757  29.5753293  22.0233249  32.5658757  28.1003293  21.9013249
  31.6938757  29.3503293  22.8813249  31.9988757  30.3543293  22.5503249
  30.6088757  29.2333293  22.7443249  31.9438757  29.2233293  23.9453249
  37.8358757  27.2473293  21.2963249  38.2128757  26.4083293  22.1123249
  38.3648757  27.3743293  20.0663249  37.9018757  27.9863293  19.4253249
  39.5338757  26.6273293  19.5923249  39.4378757  25.5693293  19.8763249
  39.6518757  26.7163293  18.0543249  39.8998757  27.7583293  17.8053249
  40.4818757  26.0603293  17.7513249  38.3748757  26.3033293  17.3093249
  38.1568757  25.2603293  17.5833249  37.5618757  26.9533293  17.6643249
  38.4908757  26.4183293  15.7843249  38.5938757  27.4763293  15.5003249
  39.3718757  25.8593293  15.4373249  37.2978757  25.8693293  15.1293249
  36.6148757  26.5413293  14.8443249  37.0548757  24.5693293  14.8943249
  35.8768757  24.2083293  14.3713249  35.1918757  24.9053293  14.1613249
  35.6868757  23.2433293  14.1933249  37.9648757  23.6273293  15.1793249
  38.8448757  23.8893293  15.5753249  37.7598757  22.6663293  14.9953249
  40.8368757  27.1203293  20.2463249  41.7078757  26.3033293  20.5413249
  40.9278757  28.4443293  20.4623249  40.1408757  28.9943293  20.1823249
  42.0818757  29.1303293  21.0463249  43.0258757  28.6993293  20.6823249
  42.0508757  30.6413293  20.6793249  41.1078757  31.0383293  21.0833249
  43.2298757  31.4813293  21.2093249  44.1738757  31.0853293  20.8053249
  43.1068757  32.5273293  20.8923249  43.2518757  31.4313293  22.3083249
  42.0268757  30.7783293  19.2693249  42.0068757  31.7483293  19.0283249
  42.1338757  29.0073293  22.5843249  43.2278757  28.9203293  23.1433249
  40.9568757  28.9993293  23.2313249  40.1298757  29.0183293  22.6703249
  40.8078757  28.9653293  24.6813249  41.5598757  29.6263293  25.1373249
  39.8008757  29.3163293  24.9493249  40.9998757  27.5453293  25.2203249
  40.5428757  26.5753293  24.6153249  41.6318757  27.4573293  26.3983249
  42.0238757  28.3083293  26.7493249  41.8188757  26.2363293  27.1763249
  41.7858757  25.3553293  26.5183249  43.1948757  26.2773293  27.8773249
  43.2098757  27.1863293  28.4973249  43.2478757  25.3903293  28.5263249
  44.4018757  26.2883293  26.9233249  44.3848757  25.3493293  26.3513249
  44.3188757  27.1403293  26.2323249  45.7168757  26.3883293  27.6993249
  46.2878757  25.3193293  28.0073249  46.1188757  27.5343293  27.9923249
  40.6898757  26.0923293  28.2113249  40.0308757  25.0533293  28.2373249
  40.4998757  27.1393293  29.0343249  41.0748757  27.9433293  28.8843249
  39.5218757  27.1803293  30.1183249  39.2548757  26.1543293  30.4103249
  39.9538757  27.7063293  30.9833249  38.2578757  27.9163293  29.6693249
  38.3218757  28.8063293  28.8213249  37.1158757  27.5503293  30.2743249
  37.1798757  26.7863293  30.9163249  35.7938757  28.1113293  29.9943249
  35.8998757  29.1063293  29.5383249  35.0178757  27.2013293  29.0183249
  35.1888757  26.2213293  29.4883249  33.9398757  27.3463293  28.8533249
  35.6618757  27.1423293  27.6453249  36.6108757  26.1403293  27.3553249
  36.7398757  25.2923293  28.0433249  37.3798757  26.2233293  26.2063249
  38.1128757  25.4353293  25.9803249  37.2268757  27.2963293  25.3413249
  37.8488757  27.3543293  24.4353249  36.2978757  28.2943293  25.6103249
  36.1798757  29.1363293  24.9123249  35.5208757  28.2303293  26.7573249
  34.7948757  29.0273293  26.9753249  35.0408757  28.3453293  31.3093249
  34.5008757  27.4013293  31.8833249  35.0358757  29.6043293  31.7713249
  35.5858757  30.2743293  31.2733249  34.3448757  30.0393293  32.9813249
  34.3468757  29.2363293  33.7333249  35.0718757  31.2723293  33.5723249
  36.1298757  31.0123293  33.4183249  34.8418757  32.2033293  33.0333249
  34.8058757  31.4723293  35.0803249  33.7258757  31.3763293  35.2643249
  35.5668757  30.4213293  35.9223249  36.6468757  30.5173293  35.7393249
  35.3598757  30.5863293  36.9903249  35.2348757  29.4123293  35.6363249
  35.0978757  32.9213293  35.5303249  34.4528757  33.6153293  34.9723249
  34.8958757  33.0193293  36.6073249  36.1528757  33.1613293  35.3323249
  32.8768757  30.3243293  32.6253249  32.5838757  31.3633293  32.0343249
  31.9968757  29.3653293  32.9453249  32.3718757  28.5593293  33.4033249
  30.5728757  29.3753293  32.6153249  30.4168757  29.8793293  31.6503249
  30.0348757  27.9343293  32.5113249  30.4288757  27.2813293  33.3043249
  28.9358757  27.8963293  32.5173249  30.5558757  27.1893293  30.9423249
  29.9788757  26.0413293  31.1383249  29.7958757  30.1943293  33.6563249
  29.3498757  29.6403293  34.6593249  29.6658757  31.5033293  33.3983249
  30.0328757  31.8343293  32.5293249  29.0378757  32.4683293  34.2973249
  29.1158757  32.1573293  35.3493249  29.6878757  33.8743293  34.1443249
  29.5598757  34.1793293  33.0953249  29.0818757  34.9493293  35.0693249
  29.2098757  34.6453293  36.1183249  29.5928757  35.9093293  34.9003249
  28.0098757  35.0613293  34.8483249  31.2048757  33.8273293  34.3963249
  31.6758757  33.1463293  33.6723249  31.6278757  34.8363293  34.2793249
  31.3968757  33.4663293  35.4173249  27.5298757  32.5923293  33.9973249
  27.1438757  32.7143293  32.8353249  26.7208757  32.6123293  35.0673249
  27.1238757  32.3183293  35.9343249  25.2968757  32.9463293  35.0423249
  25.0658757  33.5423293  34.1473249  24.4468757  31.6513293  35.0063249
  23.4088757  31.8183293  34.6833249  24.9698757  31.0393293  34.2563249
  24.3778757  30.8183293  36.2783249  25.3808757  29.8693293  36.5623249
  26.1788757  29.6763293  35.8303249  25.3618757  29.1773293  37.7663249
  26.1338757  28.4213293  37.9713249  24.3758757  29.4353293  38.7093249
  24.3708757  28.8813293  39.6593249  23.3988757  30.3873293  38.4563249
  22.6248757  30.5883293  39.2113249  23.3958757  31.0853293  37.2573249
  22.6268757  31.8493293  37.0673249  24.9858757  33.8353293  36.2573249
  25.6658757  33.7363293  37.2803249  23.9378757  34.6653293  36.1323249
  23.5208757  34.7603293  35.2283249  23.3918757  35.4563293  37.2343249
  24.1738757  35.7383293  37.9553249  22.7598757  36.7343293  36.6723249
  21.9678757  36.4673293  35.9563249  22.3268757  37.3223293  37.4943249
  23.5298757  37.3313293  36.1613249  22.3498757  34.6273293  37.9943249
  21.4318757  34.0983293  37.3663249  22.5068757  34.5293293  39.3253249
  23.3128757  34.9703293  39.7203249  21.6708757  33.6963293  40.1993249
  21.5078757  32.6923293  39.7813249  22.2588757  33.5713293  41.6383249
  21.4908757  33.1593293  42.3093249  23.4828757  32.6373293  41.6263249
  24.2518757  33.0483293  40.9553249  23.8918757  32.5543293  42.6443249
  23.1808757  31.6413293  41.2713249  22.6308757  34.8973293  42.3533249
  23.0358757  34.5943293  43.3303249  23.4348757  35.3373293  41.7443249
  21.5178757  35.9353293  42.5593249  20.7138757  35.4953293  43.1673249
  21.9278757  36.8163293  43.0753249  21.1128757  36.2393293  41.5823249
  20.1728757  34.0713293  40.2803249  19.3738757  33.2173293  40.6603249
  19.8118757  35.3073293  39.8933249  20.5488757  35.9553293  39.6993249
  18.4298757  35.7903293  39.8393249  17.7768757  35.1283293  40.4263249
  18.3418757  37.2223293  40.4273249  19.1428757  37.3433293  41.1713249
  18.4888757  37.9433293  39.6093249  16.9978757  37.5163293  41.1033249
  16.5538757  36.7623293  41.9613249  16.3398757  38.6123293  40.7253249
  15.4598757  38.8343293  41.1463249  16.7288757  39.2083293  40.0223249
  17.8398757  35.7253293  38.4133249  16.8278757  36.3763293  38.1523249
  18.4518757  34.9283293  37.5213249  19.3278757  34.5233293  37.7843249
  17.9688757  34.7093293  36.1643249  16.8758757  34.8313293  36.1283249
  18.6138757  35.7363293  35.2033249  18.4918757  36.7423293  35.6303249
  19.6848757  35.5053293  35.1103249  17.9868757  35.7173293  33.8073249
  18.6278757  35.3093293  32.8453249  16.7318757  36.1573293  33.6903249
  16.2878757  36.1603293  32.7943249  16.2418757  36.4823293  34.4993249
  18.2288757  33.2503293  35.7663249  19.3558757  32.8963293  35.4183249
  17.1548757  32.4443293  35.8003249  16.3178757  32.8323293  36.1863249
  17.1408757  31.0403293  35.3823249  17.9628757  30.4933293  35.8673249
  15.7958757  30.3623293  35.7703249  15.0048757  31.0123293  35.3683249
  15.5808757  28.9203293  35.2673249  16.3708757  28.2693293  35.6693249
  14.5998757  28.5563293  35.6053249  15.6178757  28.9053293  34.1683249
  15.7028757  30.3203293  37.1813249  14.8418757  29.8863293  37.4453249
  17.3918757  30.8553293  33.8683249  17.9388757  29.8223293  33.4923249
  17.0568757  31.8593293  33.0363249  16.5018757  32.6013293  33.4113249
  17.3188757  31.8473293  31.5933249  16.9788757  30.8973293  31.1543249
  16.5568757  33.0073293  30.9133249  15.4888757  32.8213293  31.1013249
  16.8668757  33.9233293  31.4373249  16.7898757  33.1773293  29.3973249
  16.1708757  34.0253293  29.0673249  17.8528757  33.4233293  29.2583249
  16.4378757  31.9293293  28.5623249  17.1218757  31.1253293  28.8703249
  15.4048757  31.6463293  28.8123249  16.5548757  32.1493293  27.0473249
  16.2408757  31.2243293  26.5423249  15.8758757  32.9683293  26.7673249
  17.9288757  32.4893293  26.6393249  18.2018757  33.3483293  27.0733249
  18.5508757  31.7593293  26.9233249  17.9648757  32.5913293  25.6453249
  18.8228757  31.8213293  31.2533249  19.2208757  31.0153293  30.4183249
  19.6368757  32.6473293  31.9343249  19.2128757  33.3623293  32.4903249
  21.0988757  32.6543293  31.7873249  21.3738757  32.6393293  30.7223249
  21.6798757  33.9313293  32.4283249  22.6968757  34.0603293  32.0303249
  21.0508757  34.7733293  32.1033249  21.7268757  33.8963293  33.8433249
  22.1128757  34.7533293  34.1843249  21.7818757  31.3683293  32.2983249
  22.8508757  31.0193293  31.7993249  21.1348757  30.6863293  33.2583249
  20.3758757  31.1733293  33.6903249  21.5268757  29.3903293  33.8063249
  22.6188757  29.3203293  33.9213249  20.8758757  29.2553293  35.1963249
  21.3458757  30.0153293  35.8383249  19.7978757  29.4603293  35.1163249
  21.0138757  27.9303293  35.9203249  22.2708757  27.5193293  36.4033249
  23.1588757  28.1473293  36.2383249  22.3878757  26.3203293  37.0883249
  23.3658757  26.0143293  37.4893249  21.2768757  25.5063293  37.2703249
  21.3828757  24.5593293  37.8203249  20.0398757  25.8803293  36.7633249
  19.1698757  25.2213293  36.9023249  19.8988757  27.0823293  36.0813249
  18.9198757  27.3693293  35.6693249  21.2328757  28.2093293  32.8573249
  21.9938757  27.2423293  32.8553249  20.1748757  28.3323293  32.0343249
  19.5478757  29.0883293  32.2243249  19.8478757  27.4173293  30.9363249
  19.9528757  26.3733293  31.2673249  18.3908757  27.6473293  30.4853249
  18.2728757  28.7243293  30.2963249  18.2478757  27.0933293  29.5463249
  17.3408757  27.1883293  31.5193249  17.3758757  26.0903293  31.5683249
  17.6528757  27.6083293  32.4873249  15.9098757  27.6403293  31.2043249
  15.0068757  27.1643293  31.9263249  15.7278757  28.4563293  30.2733249
  20.8098757  27.5773293  29.7453249  21.1898757  26.5693293  29.1513249
  21.2138757  28.8293293  29.4503249  20.7208757  29.5603293  29.9223249
  22.1738757  29.2013293  28.3993249  21.8868757  28.6843293  27.4713249
  22.2258757  30.7253293  28.1213249  22.5998757  31.1493293  29.0653249
  22.9478757  30.9303293  27.3173249  20.8768757  31.3653293  27.7733249
  19.9838757  30.6423293  27.2793249  20.7738757  32.6003293  27.9373249
  23.5948757  28.6433293  28.5993249  24.3408757  28.5833293  27.6233249
  23.9308757  28.1953293  29.8233249  23.3008757  28.4063293  30.5713249
  25.1618757  27.4613293  30.1363249  26.0858757  27.9723293  29.8263249
  25.2498757  27.1023293  31.6523249  24.3038757  26.6073293  31.9183249
  26.4338757  26.1853293  32.0313249  27.3798757  26.6793293  31.7673249
  26.4138757  25.9883293  33.1133249  26.3518757  25.2343293  31.4843249
  25.2168757  28.3553293  32.5593249  24.2508757  28.8463293  32.3703249
  25.2438757  27.9873293  33.5953249  26.3558757  29.3643293  32.3453249
  26.3298757  29.7333293  31.3093249  26.2328757  30.2093293  33.0393249
  27.3218757  28.8733293  32.5343249  25.2968757  26.1543293  29.3253249
  26.4038757  25.8423293  28.8873249  24.1718757  25.4443293  29.1173249
  23.3378757  25.7433293  29.6033249  24.1058757  24.2253293  28.3143249
  24.9038757  23.5423293  28.6053249  22.7528757  23.5243293  28.5353249
  22.4988757  23.4603293  29.5933249  21.9768757  24.0803293  28.0093249
  22.7148757  22.1153293  27.9963249  23.3958757  21.0613293  28.6163249
  23.1678757  20.0093293  27.8413249  23.6298757  19.0743293  28.1583249
  22.3968757  20.2923293  26.7903249  22.0838757  19.6653293  26.0633249
  22.0858757  21.6383293  26.8653249  21.4538757  22.0953293  26.1033249
  24.3568757  24.4893293  26.8213249  25.1088757  23.7373293  26.2063249
  23.7568757  25.5633293  26.2803249  23.0928757  26.0543293  26.8613249
  23.9208757  26.0003293  24.8893249  23.7238757  25.1683293  24.2123249
  22.9338757  27.1403293  24.5693249  23.1278757  27.9923293  25.2203249
  23.0538757  27.4433293  23.5293249  21.4788757  26.7823293  24.7493249
  20.8668757  26.7253293  26.0053249  19.6098757  26.3843293  25.7623249
  18.9608757  26.2913293  26.6333249  19.3608757  26.2123293  24.4643249
  18.4878757  25.9503293  24.0293249  20.5428757  26.4613293  23.7873249
  20.5758757  26.3803293  22.7013249  25.3678757  26.4053293  24.5563249
  25.8498757  26.0623293  23.4773249  26.0418757  27.0693293  25.5123249
  25.5048757  27.4623293  26.2593249  27.4738757  27.3553293  25.4623249
  27.7408757  27.7463293  24.4693249  27.8518757  28.4083293  26.5253249
  27.1308757  28.3213293  27.3523249  28.8588757  28.1563293  26.8883249
  27.8468757  29.8313293  25.9973249  28.9738757  30.3123293  25.2993249
  29.8328757  29.6473293  25.1263249  29.0028757  31.6363293  24.8243249
  29.8828757  32.0053293  24.2763249  27.8988757  32.4833293  25.0353249
  27.9448757  33.7773293  24.6123249  28.8088757  34.0123293  24.1673249
  26.7558757  31.9953293  25.6983249  25.8798757  32.6463293  25.8333249
  26.7338757  30.6753293  26.1873249  25.8468757  30.3013293  26.7193249
  28.3388757  26.0913293  25.5783249  29.2708757  25.9633293  24.7903249
  28.0238757  25.1773293  26.5163249  27.3118757  25.4193293  27.1753249
  28.7778757  23.9363293  26.7303249  29.8508757  24.1673293  26.8003249
  28.3388757  23.2323293  28.0353249  28.5448757  23.9273293  28.8633249
  27.2548757  23.0603293  27.9623249  29.0558757  21.8893293  28.2993249
  28.7068757  21.1743293  27.5393249  30.1348757  22.0613293  28.1713249
  28.7918757  21.3183293  29.6973249  29.3038757  21.9463293  30.4423249
  27.7088757  21.3313293  29.8893249  29.2788757  19.9343293  29.8323249
  28.5508757  19.2493293  29.8593249  30.5568757  19.5173293  29.9103249
  31.5848757  20.3753293  29.8963249  31.4118757  21.3573293  29.8263249
  32.5218757  20.0293293  29.9553249  30.8128757  18.2063293  30.0153249
  30.0568757  17.5523293  30.0353249  31.7588757  17.8873293  30.0733249
  28.7638757  22.9963293  25.5123249  29.8308757  22.5323293  25.1223249
  27.5848757  22.7643293  24.9103249  26.7558757  23.1023293  25.3573249
  27.4388757  21.9323293  23.7113249  27.9838757  20.9863293  23.8433249
  25.9468757  21.6133293  23.4603249  25.4378757  22.5813293  23.3393249
  25.9038757  21.0563293  22.5123249  25.2438757  20.7963293  24.5723249
  25.2838757  21.4233293  25.4753249  24.1958757  20.6603293  24.2683249
  25.8698757  19.4313293  24.8703249  25.8168757  19.0293293  26.0533249
  26.4108757  18.8113293  23.9293249  28.1138757  22.5273293  22.4583249
  28.5578757  21.7543293  21.6103249  28.2348757  23.8653293  22.3873249
  27.6808757  24.4083293  23.0193249  29.0118757  24.5683293  21.3643249
  28.8658757  24.0953293  20.3823249  28.5428757  26.0373293  21.2793249
  27.4708757  26.0143293  21.0353249  28.6808757  26.4723293  22.2803249
  29.2898757  26.8973293  20.2363249  30.3318757  27.0403293  20.5573249
  29.2728757  26.3503293  19.2823249  28.6498757  28.2713293  20.0233249
  28.0138757  28.8253293  20.9183249  28.8388757  28.8433293  18.8333249
  28.4408757  29.7413293  18.6443249  29.3778757  28.3723293  18.1353249
  30.5298757  24.4263293  21.5893249  31.2438757  24.1183293  20.6373249
  30.9838757  24.6163293  22.8403249  30.3048757  24.9333293  23.5023249
  32.3788757  24.4893293  23.2803249  33.0758757  25.0783293  22.6663249
  32.5328757  24.8993293  24.7813249  31.6688757  24.4673293  25.3073249
  33.8348757  24.4463293  25.4733249  34.6998757  24.8783293  24.9473249
  33.8328757  24.7883293  26.5183249  33.9018757  23.3483293  25.4473249
  32.3698757  26.4243293  24.9553249  33.3398757  26.8783293  24.7043249
  31.6138757  26.7483293  24.2243249  31.9458757  26.8693293  26.3603249
  32.7018757  26.5463293  27.0913249  31.8558757  27.9653293  26.3863249
  30.9758757  26.4163293  26.6113249  32.9618757  23.0793293  23.0503249
  34.0688757  22.9703293  22.5243249  32.1928757  22.0393293  23.4173249
  31.3348757  22.2513293  23.8843249  32.5568757  20.6333293  23.2383249
  33.5658757  20.4513293  23.6363249  31.5598757  19.7313293  23.9933249
  30.5528757  20.0233293  23.6603249  31.7648757  18.6973293  23.6773249
  31.6388757  19.8243293  25.5303249  32.6808757  19.6183293  25.8153249
  31.3808757  20.8573293  25.8063249  30.7018757  18.8453293  26.2683249
  31.1718757  17.8533293  26.2043249  30.6728757  19.1703293  27.3193249
  29.2688757  18.7683293  25.7163249  28.8138757  19.7673293  25.7943249
  29.3208757  18.4703293  24.6583249  28.4498757  17.7983293  26.4583249
  28.5838757  17.9313293  27.4403249  27.4858757  17.9343293  26.2323249
  28.7238757  16.8693293  26.2073249  32.6278757  20.2043293  21.7623249
  33.5118757  19.4253293  21.4133249  31.7058757  20.7223293  20.9313249
  30.9858757  21.2763293  21.3503249  31.6258757  20.4513293  19.4943249
  31.7198757  19.3733293  19.2953249  30.2508757  20.9313293  18.9783249
  29.4938757  20.3323293  19.5063249  30.1568757  21.9863293  19.2773249
  30.0348757  20.8073293  17.4573249  30.7078757  21.5283293  16.9703249
  30.3208757  19.7853293  17.1673249  28.5868757  21.0793293  17.0153249
  28.5538757  21.0663293  15.9163249  27.9488757  20.2753293  17.4113249
  28.0628757  22.3733293  17.4883249  27.2898757  22.2933293  18.1173249
  28.5118757  23.6023293  17.1763249  29.5508757  23.7953293  16.3503249
  30.0168757  23.0083293  15.9453249  29.8548757  24.7253293  16.1433249
  27.8958757  24.6703293  17.6973249  27.1148757  24.5443293  18.3083249
  28.2198757  25.5893293  17.4733249  32.7938757  21.0733293  18.7083249
  33.3718757  20.3983293  17.8573249  33.1108757  22.3433293  19.0133249
  32.5338757  22.7953293  19.6933249  34.1628757  23.1283293  18.3643249
  34.1598757  23.0393293  17.2683249  34.0198757  24.6343293  18.7423249
  33.8218757  24.6633293  19.8243249  35.2358757  25.5233293  18.4193249
  35.4348757  25.4953293  17.3373249  35.0258757  26.5583293  18.7263249
  36.1168757  25.1523293  18.9633249  32.7708757  25.2423293  18.0773249
  31.8748757  24.7023293  18.4173249  32.6868757  26.3033293  18.3553249
  32.8578757  25.1553293  16.9843249  35.5858757  22.6173293  18.6813249
  36.4458757  22.6753293  17.8023249  35.7948757  22.0993293  19.9043249
  35.0478757  22.1703293  20.5653249  37.0628757  21.5133293  20.3493249
  37.9068757  21.9613293  19.8043249  37.2448757  21.7913293  21.8533249
  36.3608757  21.3993293  22.3783249  38.1408757  21.2493293  22.1903249
  37.4038757  23.2903293  22.1663249  38.2518757  23.6623293  21.5733249
  36.4808757  23.7943293  21.8423249  37.6518757  23.5843293  23.6543249
  37.5068757  24.6663293  23.7913249  36.8818757  23.0373293  24.2173249
  39.0448757  23.1843293  24.1693249  39.0848757  23.3883293  25.2493249
  39.1808757  22.1073293  23.9943249  40.1168757  23.9313293  23.4883249
  40.0598757  23.7723293  22.5023249  40.0118757  24.9083293  23.6753249
  41.0058757  23.6203293  23.8243249  37.1768757  20.0043293  20.0593249
  38.2938757  19.4893293  20.0883249  36.0408757  19.3343293  19.7913249
  35.2098757  19.8733293  19.9303249  35.8998757  17.9003293  19.5063249
  34.8308757  17.6443293  19.4613249  36.5608757  17.5143293  18.1523249
  36.3508757  18.3013293  17.4133249  37.6368757  17.5043293  18.3803249
  36.1468757  16.1503293  17.5793249  35.1378757  15.5833293  18.0533249
  36.8238757  15.7273293  16.6163249  36.3608757  17.0383293  20.7093249
  37.2258757  16.1733293  20.5683249  35.7848757  17.3313293  21.8873249
  35.1118757  18.0713293  21.8753249  36.0958757  16.6973293  23.1693249
  36.0748757  15.6023293  23.0643249  37.5118757  17.1233293  23.6393249
  38.2368757  16.7773293  22.8873249  37.5348757  18.2223293  23.6913249
  37.8498757  16.5833293  24.9043249  38.7678757  16.8853293  25.1613249
  35.0208757  17.0913293  24.1933249  34.5138757  18.2103293  24.1293249
  34.7288757  16.1883293  25.1443249  35.0548757  15.2523293  25.0113249
  33.8568757  16.4663293  26.2923249  33.4008757  17.4613293  26.1793249
  32.7318757  15.4163293  26.3883249  33.2028757  14.4423293  26.5883249
  32.0908757  15.6943293  27.2383249  31.8748757  15.3193293  25.1093249
  31.6728757  16.3373293  24.7443249  32.4488757  14.7653293  24.3523249
  30.5528757  14.6013293  25.3703249  30.4618757  13.4103293  25.0013249
  29.6578757  15.2633293  25.9423249  34.6318757  16.5953293  27.6183249
  34.0258757  16.9773293  28.6193249  35.9508757  16.3273293  27.5933249
  36.2938757  15.9353293  26.7393249  36.8828757  16.4663293  28.7193249
  36.3558757  16.3133293  29.6723249  38.0058757  15.4003293  28.5963249
  37.5628757  14.4523293  28.2583249  38.6598757  15.8003293  27.8073249
  38.8308757  15.1553293  29.8683249  38.2378757  15.1983293  30.9673249
  40.0368757  14.8623293  29.7103249  37.4528757  17.9083293  28.8203249
  38.4138757  18.1303293  29.5553249  36.8638757  18.8653293  28.0793249
  36.0878757  18.5643293  27.5253249  37.2588757  20.2743293  28.0123249
  38.2858757  20.4163293  27.6463249  36.2868757  21.0653293  27.0883249
  35.2618757  20.8233293  27.4063249  36.4928757  22.5953293  27.1373249
  37.5178757  22.8383293  26.8193249  35.7748757  23.0843293  26.4633249
  36.3338757  22.9543293  28.1643249  36.3948757  20.5773293  25.6333249
  36.1388757  19.5083293  25.5853249  35.7008757  21.1503293  25.0013249
  37.4238757  20.7233293  25.2723249  37.2448757  20.9473293  29.4123249
  36.1878757  20.9373293  30.0483249  38.3968757  21.5123293  29.8573249
  39.6948757  21.4343293  29.1853249  39.6738757  22.0973293  28.3083249
  39.8548757  20.3973293  28.8563249  40.7088757  21.8743293  30.2233249
  41.5758757  22.3553293  29.7463249  41.0488757  21.0193293  30.8263249
  39.9298757  22.8563293  31.0703249  39.9268757  23.8613293  30.6233249
  40.3358757  22.9103293  32.0913249  38.5028757  22.2973293  31.1043249
  38.3818757  21.5933293  31.9403249  37.4658757  23.4233293  31.2303249
  37.4128757  24.3113293  30.3783249  36.6298757  23.3243293  32.2713249
  36.7928757  22.5883293  32.9283249  35.4488757  24.1593293  32.4483249
  35.6598757  25.2043293  32.1753249  34.3358757  23.6203293  31.5163249
  34.7448757  23.6713293  30.4963249  34.1888757  22.5673293  31.7993249
  32.9878757  24.3563293  31.5653249  32.6218757  24.2993293  32.6013249
  33.1798757  25.4073293  31.3023249  31.7268757  23.6823293  30.4503249
  32.4528757  24.0993293  28.8423249  33.4348757  23.6133293  28.7453249
  31.7898757  23.7483293  28.0383249  32.5748757  25.1903293  28.7663249
  35.0658757  24.1833293  33.9343249  35.2408757  23.1763293  34.6193249
  34.5588757  25.3353293  34.3983249  34.5098757  26.0953293  33.7493249
  34.0868757  25.5593293  35.7663249  33.8128757  24.6243293  36.2783249
  35.1518757  26.3103293  36.6313249  35.5598757  27.1103293  35.9953249
  34.6298757  26.9193293  37.9533249  34.2218757  26.1203293  38.5903249
  35.4568757  27.4203293  38.4783249  33.8388757  27.6513293  37.7333249
  36.3528757  25.4063293  36.9533249  36.8298757  25.0823293  36.0163249
  37.0808757  25.9643293  37.5613249  36.0088757  24.5243293  37.5133249
  32.8018757  26.3993293  35.6963249  32.7848757  27.4173293  35.0023249
  31.7628757  25.9723293  36.4343249  31.8338757  25.0683293  36.8563249
  30.5128757  26.7153293  36.5943249  30.2468757  27.2223293  35.6553249
  29.3748757  25.7343293  36.9663249  29.4448757  24.9743293  36.1743249
  29.5678757  25.2643293  37.9423249  27.9568757  26.3543293  36.9633249
  27.9578757  27.1983293  37.6693249  27.5248757  26.8493293  35.5733249
  27.5238757  26.0063293  34.8673249  26.5138757  27.2773293  35.6343249
  28.2278757  27.6193293  35.2233249  26.9168757  25.3843293  37.5403249
  27.1838757  25.1333293  38.5773249  25.9238757  25.8573293  37.5223249
  26.8958757  24.4663293  36.9353249  30.6848757  27.8223293  37.6473249
  31.3128757  27.5923293  38.6813249  30.0998757  28.9943293  37.3653249
  29.6578757  29.0763293  36.4723249  30.1218757  30.1633293  38.2353249
  30.3988757  29.9163293  39.2703249  31.1008757  31.2533293  37.7043249
  30.9968757  31.2553293  36.6093249  30.8688757  32.6783293  38.2453249
  30.9728757  32.6773293  39.3403249  31.6108757  33.3623293  37.8083249
  29.8568757  33.0133293  37.9743249  32.5528757  30.8383293  37.9833249
  32.7658757  29.8853293  37.4773249  33.2348757  31.6133293  37.6043249
  32.6988757  30.7193293  39.0673249  28.7048757  30.7303293  38.3823249
  28.0998757  31.1323293  37.3893249  28.2318757  30.7863293  39.6363249
  28.7708757  30.3473293  40.3553249  26.9868757  31.4443293  40.0103249
  26.3188757  31.5643293  39.1453249  26.4618757  30.8933293  40.8043249
  27.3728757  32.8223293  40.5343249  27.6078757  32.9763293  41.7313249
  27.4408757  33.8113293  39.6313249  27.3338757  33.5593293  38.6693249
  27.7398757  35.2043293  39.9533249  28.4798757  35.2613293  40.7653249
  28.3248757  35.9023293  38.7023249  29.0778757  35.2283293  38.2673249
  27.5088757  36.0543293  37.9813249  28.9868757  37.2583293  38.9883249
  29.6938757  37.4243293  39.9803249  28.7508757  38.2383293  38.1183249
  29.1598757  39.1393293  38.2623249  28.1658757  38.0693293  37.3253249
  26.4948757  35.9343293  40.4863249  25.3698757  35.5003293  40.2443249
  26.7518757  37.0623293  41.1653249  27.7158757  37.1663293  41.4113249
  25.7888757  38.0143293  41.7183249  26.3368757  38.8893293  42.0983249
  24.7528757  38.4963293  40.6693249  24.0488757  37.6663293  40.5133249
  24.2198757  39.3483293  41.1173249  25.3538757  38.9203293  39.3173249
  26.3368757  39.3743293  39.5113249  25.4828757  38.0153293  38.7053249
  24.4678757  39.9203293  38.5683249  23.4418757  39.5223293  38.5573249
  24.4858757  40.8703293  39.1223249  24.9388757  40.1583293  37.1303249
  25.9988757  40.4533293  37.1513249  24.8308757  39.2203293  36.5653249
  24.1498757  41.2143293  36.4803249  23.2008757  41.1593293  36.7893249
  24.5268757  42.1083293  36.7213249  24.1848757  41.0933293  35.4883249
  25.1338757  37.5193293  43.0193249  23.9948757  37.8883293  43.2973249
  25.8658757  36.7173293  43.8133249  26.7418757  36.4073293  43.4453249
  25.4138757  36.1613293  45.0973249  24.3808757  35.7983293  44.9933249
  26.3038757  34.9893293  45.5473249  27.3778757  35.2103293  45.4553249
  26.0848757  34.6573293  46.5733249  25.9928757  33.5593293  44.4793249
  26.8388757  32.7653293  45.0653249  25.2598757  37.1993293  46.2303249
  24.7088757  36.8483293  47.2733249  25.6758757  38.4573293  45.9973249
  26.2958757  38.5853293  45.2233249  25.3558757  39.6213293  46.8323249
  25.5568757  39.3593293  47.8813249  26.1788757  40.8893293  46.4713249
  25.6838757  41.6683293  47.0703249  27.2148757  40.7633293  46.8173249
  26.1808757  41.3053293  44.9913249  26.4628757  40.4453293  44.1283249
  25.9848757  42.5143293  44.7433249  23.8518757  39.9723293  46.7883249
  23.3278757  40.4913293  47.7733249  23.2028757  39.6993293  45.6423249
  23.7478757  39.2803293  44.9153249  21.8078757  40.0223293  45.3623249
  21.5138757  40.9483293  45.8793249  21.6358757  40.2303293  43.8383249
  21.9748757  39.2603293  43.4453249  20.5858757  40.3943293  43.5533249
  22.5138757  41.3623293  43.2453249  23.5538757  41.1953293  43.5613249
  22.4428757  41.3933293  41.7073249  21.4028757  41.5603293  41.3913249
  23.0778757  42.2073293  41.3273249  22.7978757  40.4333293  41.3033249
  22.2038757  42.7403293  43.8643249  22.3868757  42.7053293  44.9483249
  22.8528757  43.5023293  43.4083249  21.1508757  42.9973293  43.6783249
  20.8758757  38.9203293  45.8943249  21.1938757  37.7343293  45.7943249
  19.7398757  39.3893293  46.4183249  19.6878757  40.3863293  46.3663249
  18.6458757  38.6723293  47.0653249  19.0118757  37.9243293  47.7833249
  17.8318757  39.7413293  47.8363249  16.8308757  39.3283293  48.0293249
  18.3418757  39.9293293  48.7933249  17.5648757  41.3903293  47.0693249
  17.7248757  37.8763293  46.1213249  17.7828757  38.0653293  44.9083249
  16.8368757  37.0513293  46.7163249  17.0988757  36.7233293  47.6243249
  15.6448757  36.4673293  46.0813249  15.1428757  35.7763293  46.7743249
  14.6528757  37.6003293  45.7043249  14.5708757  38.2783293  46.5663249
  15.0728757  38.1463293  44.8463249  13.3698757  37.1093293  45.3673249
  12.7708757  37.8753293  45.1333249  15.9538757  35.4923293  44.9183249
  15.0948757  35.2903293  44.0583249  17.1738757  34.9223293  44.9153249
  17.7478757  35.1813293  45.6913249  17.7748757  34.1213293  43.8443249
  17.8898757  34.7233293  42.9303249  19.1708757  33.6413293  44.2983249
  19.5988757  33.1153293  43.4323249  19.7488757  34.5563293  44.4933249
  19.2288757  32.7243293  45.5363249  18.7018757  33.2323293  46.3573249
  18.7058757  31.7893293  45.2883249  20.6688757  32.4063293  45.9713249
  21.2378757  33.3443293  46.0523249  20.6488757  31.9043293  46.9503249
  21.3428757  31.5283293  45.0073249  20.8008757  31.2823293  44.2033249
  22.5938757  31.0513293  45.1073249  23.3858757  31.3663293  46.1423249
  23.0448757  31.9703293  46.8633249  24.3128757  30.9953293  46.1893249
  23.0478757  30.2333293  44.1533249  22.4558757  29.9893293  43.3853249
  23.9768757  29.8693293  44.2113249  16.8818757  32.9813293  43.3163249
  16.4998757  32.0903293  44.0743249  16.5648757  33.0583293  42.0133249
  16.8998757  33.8653293  41.5263249  15.7348757  32.0963293  41.2793249
  14.8408757  31.7673293  41.8293249  15.2888757  32.6693293  39.9023249
  14.5668757  31.9603293  39.4723249  14.6488757  34.0643293  39.9873249
  15.3708757  34.7733293  40.4173249  14.3618757  34.3983293  38.9793249
  13.7548757  34.0203293  40.6263249  16.3258757  32.6913293  38.9353249
  15.9748757  33.0683293  38.0783249  16.4348757  30.7383293  41.0443249
  15.7418757  29.7313293  40.9063249  17.7788757  30.7413293  41.0353249
  18.2218757  31.6363293  41.0923249  18.6238757  29.5563293  40.9753249
  18.0428757  28.6313293  40.8483249  19.6688757  29.6483293  39.8263249
  20.2498757  30.5693293  39.9773249  20.6258757  28.4383293  39.7783249
  20.0448757  27.5173293  39.6263249  21.3358757  28.5643293  38.9483249
  21.1798757  28.3693293  40.7263249  18.9878757  29.8253293  38.4593249
  18.3918757  30.7503293  38.4633249  19.7538757  29.8873293  37.6723249
  18.3298757  28.9663293  38.2633249  19.3728757  29.4743293  42.3133249
  20.2038757  30.3423293  42.5953249  19.0558757  28.4443293  43.1153249
  18.2608757  27.8913293  42.8663249  19.7038757  28.1873293  44.4053249
  20.0378757  29.1483293  44.8243249  18.7668757  27.4953293  45.4353249
  19.3068757  27.3183293  46.3773249  18.0078757  28.2763293  45.5883249
  18.0818757  26.1983293  44.9883249  18.7168757  25.4363293  44.2293249
  16.9758757  25.9353293  45.5053249  21.0348757  27.4283293  44.2163249
  21.3728757  27.0123293  43.1053249  21.7628757  27.2573293  45.3303249
  21.4238757  27.7023293  46.1593249  23.0178757  26.5093293  45.4073249
  23.7438757  26.9003293  44.6783249  23.6338757  26.6193293  46.8303249
  22.9438757  26.0983293  47.5103249  25.0468757  26.0293293  46.9823249
  25.7368757  26.5503293  46.3023249  25.3888757  26.1573293  48.0203249
  25.0268757  24.9583293  46.7333249  23.7048757  27.9803293  47.2053249
  24.1008757  28.0533293  48.1203249  22.8638757  25.0113293  45.0613249
  23.7788757  24.4413293  44.4713249  21.7038757  24.4183293  45.3963249
  21.0758757  24.9603293  45.9553249  21.3678757  23.0173293  45.1363249
  22.2018757  22.3603293  45.4253249  20.1238757  22.6353293  45.9733249
  20.3618757  22.9013293  47.0133249  19.3038757  23.2733293  45.6113249
  19.6908757  21.1553293  45.9073249  20.6018757  20.5643293  45.7333249
  19.2708757  20.9013293  46.8923249  18.6558757  20.8373293  44.8103249
  17.7968757  21.5083293  44.9583249  19.1248757  21.0513293  43.8383249
  18.1748757  19.3783293  44.8363249  17.7788757  19.1623293  45.8393249
  17.3718757  19.2663293  44.0933249  19.2638757  18.4373293  44.5263249
  19.6238757  18.6333293  43.6143249  19.9938757  18.5383293  45.2023249
  18.9128757  17.5013293  44.5523249  21.2258757  22.7073293  43.6363249
  21.8588757  21.7623293  43.1693249  20.4328757  23.5193293  42.9143249
  19.9228757  24.2083293  43.4303249  20.2038757  23.4233293  41.4683249
  19.7828757  22.4393293  41.2143249  19.2058757  24.5153293  41.0273249
  19.5008757  25.4503293  41.5273249  19.3088757  24.6333293  39.9383249
  17.7408757  24.1903293  41.3713249  17.4118757  23.3583293  40.7313249
  17.6608757  23.8933293  42.4273249  16.8198757  25.3883293  41.1283249
  17.0368757  26.4663293  41.6743249  15.7728757  25.2033293  40.3223249
  15.1468757  25.9613293  40.1383249  15.6188757  24.3073293  39.9053249
  21.4848757  23.5123293  40.6263249  21.6558757  22.7213293  39.6983249
  22.3588757  24.4683293  40.9773249  22.0818757  25.0983293  41.7033249
  23.6188757  24.7203293  40.2863249  23.4038757  24.6533293  39.2093249
  24.0718757  26.1443293  40.6063249  24.2998757  26.2253293  41.6793249
  24.9728757  26.3833293  40.0213249  23.2698757  26.8513293  40.3493249
  24.7108757  23.6773293  40.5773249  25.5168757  23.4103293  39.6853249
  24.6838757  23.0533293  41.7693249  24.1388757  23.4613293  42.5023249
  25.4868757  21.8663293  42.0793249  26.5368757  22.0533293  41.8093249
  25.4168757  21.5253293  43.5803249  24.3708757  21.6553293  43.8963249
  25.7038757  20.4683293  43.6883249  26.3298757  22.3963293  44.4593249
  27.3718757  22.2523293  44.1363249  26.0558757  23.4563293  44.3503249
  26.2178757  22.0123293  45.9343249  27.1478757  21.4493293  46.5053249
  25.0718757  22.3013293  46.5523249  24.9548757  22.0673293  47.5173249
  24.3338757  22.7493293  46.0473249  25.0988757  20.6433293  41.2323249
  25.9958757  19.9233293  40.8003249  23.7898757  20.4503293  40.9853249
  23.1458757  21.0163293  41.4993249  23.2518757  19.3813293  40.1343249
  23.7738757  18.4473293  40.3913249  21.7288757  19.1553293  40.2903249
  21.3138757  20.0863293  39.8753249  21.4048757  18.3033293  39.6743249
  21.2268757  18.9673293  41.7253249  22.0208757  18.5303293  42.5893249
  20.0088757  19.1703293  41.9193249  23.6108757  19.5493293  38.6493249
  23.9128757  18.5453293  38.0023249  23.6058757  20.7993293  38.1473249
  23.2438757  21.5303293  38.7253249  24.0048757  21.1313293  36.7773249
  23.4718757  20.4843293  36.0653249  23.6588757  22.6063293  36.4603249
  22.6168757  22.6643293  36.8073249  24.2728757  23.3253293  37.0233249
  23.7198757  22.9473293  34.9503249  24.6858757  22.5953293  34.5583249
  22.5728757  22.2893293  34.1563249  21.6068757  22.6413293  34.5473249
  22.6598757  22.5593293  33.0933249  22.6338757  21.1963293  34.2613249
  23.8088757  24.4603293  34.6853249  24.7168757  24.8633293  35.1573249
  23.8488757  24.6413293  33.6013249  22.9238757  24.9593293  35.1073249
  25.4948757  20.8323293  36.5303249  25.8218757  20.1903293  35.5333249
  26.3558757  21.2683293  37.4643249  25.9838757  21.8393293  38.1963249
  27.7978757  21.0403293  37.4293249  28.1488757  21.3463293  36.4333249
  28.4658757  21.9313293  38.4783249  28.1308757  21.6313293  39.4823249
  29.5588757  21.8233293  38.4093249  28.1898757  22.9803293  38.2983249
  28.2008757  19.5693293  37.6203249  29.1548757  19.1403293  36.9763249
  27.4618757  18.8173293  38.4573249  26.7648757  19.2863293  38.9993249
  27.6968757  17.3913293  38.7103249  28.7698757  17.2053293  38.8643249
  26.9318757  16.9523293  39.9793249  27.1448757  17.7023293  40.7553249
  25.8608757  16.9773293  39.7303249  27.3048757  15.5493293  40.5043249
  27.2068757  14.8553293  39.6563249  28.3578757  15.5953293  40.8193249
  26.4408757  15.0533293  41.6763249  25.4278757  14.8483293  41.2983249
  26.8828757  14.1243293  42.0643249  26.3458757  16.0263293  42.7773249
  27.1478757  16.1033293  43.3703249  25.2798757  16.8053293  43.0343249
  24.1478757  16.6913293  42.3283249  24.0868757  16.0163293  41.5933249
  23.3698757  17.2823293  42.5393249  25.3418757  17.7123293  44.0163249
  26.1798757  17.8063293  44.5543249  24.5498757  18.2913293  44.2083249
  27.3628757  16.5083293  37.4923249  28.0838757  15.5413293  37.2513249
  26.3188757  16.8793293  36.7263249  25.7088757  17.5783293  37.0983249
  25.9378757  16.2193293  35.4713249  25.9718757  15.1263293  35.5903249
  24.4978757  16.6293293  35.0863249  24.1048757  15.8533293  34.4133249
  23.9038757  16.6453293  36.0113249  24.4148757  17.8903293  34.4503249
  23.4598757  18.0903293  34.2303249  26.9568757  16.4343293  34.3303249
  27.0558757  15.5803293  33.4503249  27.7088757  17.5473293  34.3883249
  27.4758757  18.2063293  35.1033249  28.8068757  17.8723293  33.4763249
  28.6308757  17.4303293  32.4843249  28.8878757  19.4043293  33.3263249
  29.1168757  19.7513293  34.3443249  29.7498757  19.5983293  32.6703249
  27.6708757  20.1503293  32.7983249  26.6828757  19.5243293  32.0053249
  26.7628757  18.4503293  31.7813249  25.5978757  20.2703293  31.5023249
  24.8268757  19.7763293  30.8923249  25.4968757  21.6463293  31.7863249
  24.4628757  22.3783293  31.2833249  23.8348757  21.8353293  30.7263249
  26.4708757  22.2703293  32.5863249  26.3858757  23.3423293  32.8173249
  27.5518757  21.5253293  33.0903249  28.3118757  22.0143293  33.7173249
  30.1658757  17.3323293  33.9673249  31.0958757  17.2613293  33.1643249
  30.2658757  16.9773293  35.2623249  29.4348757  17.0673293  35.8113249
  31.4778757  16.4783293  35.9133249  31.1748757  15.9243293  36.8143249
  31.9808757  15.7943293  35.2143249  32.4608757  17.5943293  36.3183249
  33.5848757  17.2753293  36.7013249  32.0638757  18.8773293  36.2293249
  31.1168757  19.0313293  35.9463249  32.9128757  20.0473293  36.4853249
  33.9948757  19.8493293  36.4933249  32.6008757  21.1853293  35.4653249
  33.2118757  22.0673293  35.7073249  32.9258757  20.7133293  34.0333249
  32.3148757  19.8313293  33.7903249  32.7028757  21.5213293  33.3213249
  33.9918757  20.4503293  33.9663249  31.1798757  21.7943293  35.5763249
  30.4648757  20.9693293  35.4403249  31.0818757  22.1993293  36.5943249
  30.8838757  22.9013293  34.5553249  30.9808757  22.4963293  33.5373249
  29.8598757  23.2743293  34.7043249  31.5978757  23.7263293  34.6913249
  32.7248757  20.6043293  37.9213249  31.6838757  20.3453293  38.5283249
  33.6958757  21.4073293  38.4273249  35.0578757  21.5503293  37.9073249
  35.0568757  22.3063293  37.1083249  35.3858757  20.5843293  37.4963249
  35.8778757  21.9763293  39.1123249  36.7648757  22.5483293  38.8033249
  36.1918757  21.1033293  39.7033249  34.9068757  22.8403293  39.8953249
  34.9128757  23.8773293  39.5293249  35.1448757  22.8293293  40.9693249
  33.5198757  22.2093293  39.6583249  33.2548757  21.5073293  40.4633249
  32.4408757  23.3073293  39.5583249  32.1648757  23.8003293  38.4633249
  31.8978757  23.6933293  40.7243249  32.0548757  23.0953293  41.5103249
  31.0038757  24.8383293  40.8923249  31.1008757  25.5133293  40.0293249
  29.5348757  24.3743293  40.9933249  29.2308757  24.0313293  39.9933249
  29.4418757  23.5443293  41.7083249  28.5238757  25.4293293  41.4173249
  28.3208757  26.5803293  40.6293249  28.8918757  26.7153293  39.6993249
  27.4028757  27.5413293  41.0253249  27.2428757  28.4343293  40.4033249
  26.6878757  27.3783293  42.2033249  25.9548757  28.1423293  42.5023249
  26.8918757  26.2613293  43.0033249  26.3248757  26.1473293  43.9393249
  27.8088757  25.2903293  42.6253249  27.9778757  24.4133293  43.2673249
  31.4468757  25.6953293  42.0843249  31.5668757  25.1693293  43.1913249
  31.6648757  26.9953293  41.8263249  31.5528757  27.2833293  40.8753249
  32.0658757  27.9993293  42.8123249  31.8968757  27.6663293  43.8473249
  33.5658757  28.4033293  42.6323249  33.7348757  28.4963293  41.5493249
  33.9928757  29.7163293  43.3363249  33.8248757  29.6233293  44.4193249
  35.0598757  29.9053293  43.1453249  33.3978757  30.5543293  42.9433249
  34.4988757  27.2533293  43.0783249  34.6278757  27.3443293  44.1673249
  33.9818757  26.3093293  42.8493249  35.8698757  27.2623293  42.3993249
  36.3868757  28.2063293  42.6283249  36.4688757  26.4173293  42.7703249
  35.7408757  27.1703293  41.3103249  31.1648757  29.2313293  42.6353249
  31.1608757  29.8253293  41.5583249  30.4358757  29.6033293  43.7003249
  30.4058757  28.9883293  44.4883249  29.6278757  30.8243293  43.7423249
  29.1218757  30.9703293  42.7763249  28.5618757  30.7243293  44.8443249
  29.0508757  30.4053293  45.7763249  28.1118757  31.7173293  44.9873249
  27.4668757  29.7163293  44.4713249  27.1248757  29.9363293  43.4493249
  27.9668757  28.7363293  44.4873249  26.2678757  29.6903293  45.4133249
  26.2418757  30.4563293  46.4013249  25.3468757  28.9103293  45.0973249
  30.4948757  32.0683293  43.9473249  31.4688757  32.0163293  44.7013249
  30.1098757  33.1573293  43.2663249  29.2788757  33.0973293  42.7133249
  30.8758757  34.3953293  43.2273249  31.5128757  34.5523293  44.1103249
  31.7668757  34.4923293  41.9433249  32.4378757  35.3523293  42.0873249
  32.5998757  33.2393293  41.6393249  31.9298757  32.3793293  41.4953249
  33.1888757  33.4033293  40.7243249  33.2788757  33.0363293  42.4803249
  31.0488757  34.8533293  40.7793249  31.6758757  34.8973293  40.0013249
  29.9848757  35.6473293  43.3243249  28.7598757  35.5763293  43.2223249
  30.6668757  36.7843293  43.5013249  31.6248757  36.6633293  43.7623249
  30.1388757  38.1353293  43.4263249  29.4218757  38.2033293  42.5943249
  29.4148757  38.5253293  44.7343249  28.4688757  37.9663293  44.7803249
  30.0548757  38.2323293  45.5803249  29.1468757  39.9113293  44.8043249
  28.6788757  40.1173293  45.6633249  31.3298757  39.0403293  43.0953249
  32.2628757  39.1313293  43.8923249  31.2588757  39.7033293  41.9323249
  30.5038757  39.4633293  41.3213249  32.2198757  40.7083293  41.4853249
  33.2298757  40.2773293  41.5493249  31.9258757  41.0523293  40.0213249
  30.9208757  41.4933293  39.9423249  32.6718757  41.7743293  39.6573249
  31.9728757  40.1373293  39.4133249  32.2008757  41.9963293  42.3253249
  33.2088757  42.6973293  42.3503249  31.0638757  42.2903293  42.9813249
  30.2818757  41.6863293  42.8253249  30.8588757  43.4973293  43.7793249
  31.3568757  44.3613293  43.3153249  29.3448757  43.7833293  43.8563249
  28.9538757  43.7363293  42.8293249  28.8938757  42.9793293  44.4563249
  28.9908757  45.1473293  44.4773249  29.1128757  45.0623293  45.5673249
  29.7018757  45.8903293  44.0853249  27.5558757  45.5923293  44.1563249
  27.4028757  45.4833293  43.0723249  26.8668757  44.9233293  44.6923249
  27.2828757  47.0453293  44.5683249  27.3758757  47.1243293  45.6613249
  28.0318757  47.6933293  44.0893249  25.9338757  47.4703293  44.1593249
  25.8488757  47.3993293  43.1653249  25.2518757  46.8823293  44.5943249
  25.7838757  48.4183293  44.4403249  31.5368757  43.4503293  45.1613249
  31.9038757  44.5063293  45.6753249  31.7048757  42.2413293  45.7203249
  31.4198757  41.4503293  45.1793249  32.2568757  42.0063293  47.0603249
  32.4968757  42.9403293  47.5903249  31.2448757  41.1943293  47.9173249
  31.6758757  41.0823293  48.9233249  29.8638757  41.8633293  48.0233249
  29.4318757  41.9753293  47.0183249  29.1998757  41.2393293  48.6403249
  29.9708757  42.8543293  48.4873249  31.0668757  39.8743293  47.4343249
  30.4098757  39.3923293  48.0153249  33.5938757  41.2283293  47.0323249
  34.2298757  41.1133293  48.0793249  33.9898757  40.7083293  45.8563249
  33.3418757  40.8533293  45.1083249  35.1278757  39.8083293  45.6273249
  35.1108757  39.4683293  44.5813249  36.4868757  40.5053293  45.8993249
  36.3848757  41.5553293  45.5883249  36.6678757  40.4603293  46.9833249
  37.6748757  39.8603293  45.1523249  37.5828757  38.7703293  45.2693249
  37.5758757  40.1243293  44.0893249  39.0448757  40.3143293  45.6653249
  39.0748757  41.4133293  45.7063249  39.2138757  39.9053293  46.6723249
  40.1208757  39.8473293  44.7823249  40.2888757  38.8613293  44.8023249
  40.8728757  40.6093293  43.9723249  40.7438757  41.9413293  43.9463249
  40.0748757  42.3873293  44.5403249  41.3168757  42.4843293  43.3323249
  41.7748757  40.0263293  43.1743249  41.8808757  39.0323293  43.1873249
  42.3378757  40.5873293  42.5683249  34.9668757  38.4413293  46.3363249
  35.9458757  37.8643293  46.8083249  33.7268757  37.9243293  46.3773249
  32.9638757  38.5263293  46.1413249  33.4288757  36.5443293  46.7583249
  33.9668757  36.2723293  47.6783249  31.9118757  36.4133293  47.0163249
  31.6788757  37.1043293  47.8393249  31.4128757  36.7563293  46.0983249
  31.4098757  34.9953293  47.3763249  31.8458757  34.2843293  46.6583249
  31.7448757  34.7413293  48.3923249  29.8828757  34.8753293  47.3193249
  29.1588757  35.8553293  47.4873249  29.3838757  33.6583293  47.0923249
  28.3938757  33.5273293  47.0453249  30.0028757  32.8823293  46.9693249
  33.8698757  35.6183293  45.6183249  33.4018757  35.8143293  44.4993249
  34.7298757  34.6333293  45.9323249  35.1258757  34.6933293  46.8483249
  35.1278757  33.5093293  45.0743249  35.9018757  32.9603293  45.6313249
  34.2348757  32.8763293  44.9683249  35.6678757  33.8523293  43.6723249
  35.7938757  32.9333293  42.8643249  35.9588757  35.1303293  43.3603249
  35.8418757  35.8033293  44.0903249  36.3728757  35.6053293  42.0343249
  35.7018757  35.2673293  41.2313249  36.4748757  37.1613293  41.9763249
  37.1118757  37.4713293  42.8183249  37.0568757  37.7183293  40.6583249
  36.4198757  37.4083293  39.8163249  37.0908757  38.8163293  40.7063249
  38.0738757  37.3263293  40.5123249  35.1118757  37.8193293  42.2533249
  34.7608757  37.5283293  43.2543249  35.2158757  38.9133293  42.2063249
  34.3838757  37.4873293  41.4983249  37.7188757  34.9893293  41.6183249
  37.8028757  34.3833293  40.5503249  38.7138757  35.1073293  42.5113249
  38.5548757  35.7443293  43.2653249  40.0378757  34.5043293  42.3813249
  40.3988757  34.7013293  41.3613249  41.0868757  35.0393293  43.3893249
  40.8388757  34.5033293  44.3173249  42.0928757  34.7453293  43.0553249
  41.0548757  36.5513293  43.6473249  42.0798757  37.2053293  43.3543249
  40.0408757  37.0293293  44.2023249  39.9888757  32.9703293  42.4133249
  40.6718757  32.3483293  41.6043249  39.1518757  32.3963293  43.2963249
  38.6998757  33.0113293  43.9433249  38.9548757  30.9523293  43.4563249
  39.9278757  30.4663293  43.6223249  38.0338757  30.6443293  44.6633249
  38.3678757  31.2193293  45.5393249  37.0538757  31.0183293  44.3323249
  37.9148757  29.1603293  45.0403249  38.8748757  28.4033293  44.7713249
  36.8878757  28.8283293  45.6693249  38.4448757  30.2783293  42.1653249
  38.9938757  29.2483293  41.7813249  37.4438757  30.8873293  41.5063249
  37.0408757  31.6883293  41.9493249  36.8498757  30.4143293  40.2553249
  36.4958757  29.3893293  40.4373249  35.6438757  31.2933293  39.9013249
  35.9828757  32.3213293  39.7073249  35.1508757  30.8953293  39.0023249
  34.9318757  31.2943293  40.7393249  37.8468757  30.3493293  39.0853249
  37.8878757  29.3313293  38.3933249  38.6508757  31.4143293  38.9153249
  38.4478757  32.2333293  39.4523249  39.7188757  31.4863293  37.9153249
  39.3498757  31.1183293  36.9463249  40.1928757  32.9463293  37.7403249
  40.2528757  33.3893293  38.7453249  41.1828757  32.9853293  37.2633249
  39.2788757  33.8463293  36.9213249  39.0108757  33.5453293  35.5683249
  39.4118757  32.6233293  35.1223249  38.2438757  34.4103293  34.8013249
  38.0548757  34.1773293  33.7433249  37.7148757  35.5663293  35.3633249
  37.1068757  36.2443293  34.7463249  37.9508757  35.8663293  36.6993249
  37.5188757  36.7773293  37.1393249  38.7288757  35.0203293  37.4793249
  38.9178757  35.2643293  38.5353249  40.9068757  30.5493293  38.1983249
  41.4538757  29.9893293  37.2493249  41.2788757  30.3783293  39.4793249
  40.8118757  30.9193293  40.1783249  42.3908757  29.5153293  39.8963249
  43.2158757  29.6053293  39.1743249  42.9108757  29.9173293  41.2953249
  42.0598757  29.7813293  41.9783249  43.6808757  29.1633293  41.5143249
  43.4978757  31.3143293  41.4873249  43.6668757  32.2283293  40.4203249
  43.4028757  31.9213293  39.3973249  44.1678757  33.5213293  40.6593249
  44.3008757  34.2203293  39.8203249  44.5168757  33.9133293  41.9643249
  44.9768757  35.1763293  42.1943249  45.0238757  35.7323293  41.3643249
  44.3698757  33.0043293  43.0313249  44.6528757  33.3033293  44.0513249
  43.8608757  31.7133293  42.7913249  43.7428757  31.0053293  43.6243249
  42.0228757  28.0223293  39.8683249  42.9108757  27.2043293  39.6403249
  40.7338757  27.6903293  40.0533249  40.1158757  28.4053293  40.3813249
  40.2008757  26.3373293  39.8833249  40.9028757  25.6183293  40.3303249
  38.8188757  26.1693293  40.5643249  38.1758757  26.9613293  40.1523249
  38.1338757  24.8023293  40.3743249  38.7758757  24.0103293  40.7873249
  37.1668757  24.8003293  40.8983249  37.9698757  24.6193293  39.3023249
  39.0018757  26.3523293  41.9543249  38.1238757  26.2493293  42.4223249
  40.1058757  25.9413293  38.3993249  40.3718757  24.7843293  38.0823249
  39.8168757  26.9123293  37.5143249  39.4898757  27.7823293  37.8823249
  39.8248757  26.7323293  36.0623249  39.2568757  25.8343293  35.7783249
  39.1598757  27.9653293  35.4063249  38.1868757  27.9733293  35.9203249
  39.7088757  28.8873293  35.6473249  38.9348757  27.8853293  33.8803249
  39.9178757  27.7803293  33.3983249  38.0348757  26.6993293  33.4753249
  37.0508757  26.8033293  33.9563249  37.9088757  26.6903293  32.3823249
  38.5018757  25.7573293  33.7973249  38.4148757  29.2303293  33.3333249
  39.1508757  30.0203293  33.5423249  38.2628757  29.1503293  32.2473249
  37.4608757  29.4803293  33.8193249  41.2328757  26.4333293  35.5043249
  41.3438757  25.6283293  34.5833249  42.2758757  27.0283293  36.1093249
  42.0558757  27.7543293  36.7613249  43.6898757  26.7403293  35.8393249
  43.9658757  26.7463293  34.7743249  44.6028757  27.7513293  36.5953249
  44.1408757  27.8873293  37.5843249  46.0858757  27.3573293  36.7703249
  46.5488757  27.2223293  35.7813249  46.6148757  28.1523293  37.3163249
  46.1518757  26.4173293  37.3373249  44.5138757  29.1383293  35.9483249
  43.4738757  29.4953293  35.9873249  45.1628757  29.8403293  36.4923249
  44.8398757  29.0753293  34.8993249  44.0928757  25.2973293  36.2113249
  44.8498757  24.6813293  35.4623249  43.5618757  24.7823293  37.3333249
  43.0358757  25.4043293  37.9133249  43.7938757  23.4153293  37.8103249
  44.8628757  23.1673293  37.7333249  43.3618757  23.2873293  39.2873249
  42.3048757  23.5873293  39.3453249  43.4578757  22.2273293  39.5633249
  44.1938757  24.1493293  40.2593249  45.1418757  23.6243293  40.4503249
  44.4008757  25.1113293  39.7673249  43.4718757  24.4013293  41.5893249
  42.5468757  24.9613293  41.3873249  43.2208757  23.4313293  42.0423249
  44.2878757  25.1683293  42.5403249  45.2728757  25.0033293  42.4903249
  43.8308757  26.0523293  43.4463249  44.7028757  26.6483293  44.2673249
  45.6768757  26.4323293  44.1993249  44.3768757  27.3073293  44.9453249
  42.5268757  26.3573293  43.5493249  41.8648757  25.9203293  42.9403249
  42.2238757  27.0193293  44.2343249  43.1118757  22.3573293  36.9243249
  43.7098757  21.3023293  36.7233249  41.9248757  22.6653293  36.3623249
  41.4628757  23.4893293  36.6903249  41.2408757  21.8343293  35.3603249
  41.1308757  20.8083293  35.7413249  39.8328757  22.4013293  35.0503249
  39.9818757  23.4523293  34.7623249  39.4578757  21.8343293  34.1853249
  38.8078757  22.3243293  36.1983249  39.2498757  22.8353293  37.0663249
  37.9018757  22.8603293  35.8803249  38.4428757  20.8913293  36.5823249
  37.7988757  20.2253293  35.7433249  38.8078757  20.4923293  37.7103249
  42.0498757  21.6933293  34.0563249  42.1108757  20.5943293  33.5053249
  42.6688757  22.7993293  33.6073249  42.4958757  23.6483293  34.1073249
  43.5108757  22.8593293  32.4083249  43.0638757  22.3183293  31.5613249
  43.8028757  24.3303293  31.9893249  44.1668757  24.8483293  32.8883249
  44.8308757  24.4933293  30.8503249  44.4668757  23.9763293  29.9503249
  44.9668757  25.5623293  30.6293249  45.7928757  24.0573293  31.1593249
  42.5128757  25.0813293  31.6023249  42.2778757  24.8203293  30.5603249
  41.7088757  24.7203293  32.2603249  42.6338757  26.6023293  31.7323249
  43.4368757  26.9643293  31.0743249  41.6828757  27.0723293  31.4423249
  42.8688757  26.8643293  32.7743249  44.8368757  22.0993293  32.5893249
  45.2468757  21.3873293  31.6733249  45.4528757  22.2333293  33.7763249
  45.0648757  22.9093293  34.4033249  46.6748757  21.5383293  34.1773249
  47.4818757  21.7213293  33.4523249  47.1178757  22.0743293  35.5543249
  47.1538757  23.1703293  35.4703249  46.3358757  21.7873293  36.2723249
  48.4828757  21.5503293  36.0453249  48.4788757  20.4543293  35.9473249
  49.2618757  21.9733293  35.3933249  48.7728757  21.9323293  37.5033249
  47.9158757  21.6323293  38.1233249  49.6718757  21.3933293  37.8373249
  48.9978757  23.3763293  37.6753249  49.4288757  23.8363293  36.8993249
  48.6768757  24.1073293  38.7563249  48.0378757  23.5663293  39.8023249
  47.7898757  22.5973293  39.7863249  47.8108757  24.1333293  40.5943249
  49.0118757  25.4013293  38.7803249  49.4918757  25.8053293  38.0013249
  48.7798757  25.9593293  39.5773249  46.4958757  20.0073293  34.1893249
  47.3098757  19.3093293  33.5863249  45.4128757  19.5373293  34.8373249
  44.8668757  20.2183293  35.3253249  45.0268757  18.1263293  34.9503249
  45.8648757  17.5333293  35.3463249  43.8268757  17.9913293  35.9153249
  43.0558757  18.6853293  35.5503249  43.4648757  16.9573293  35.8163249
  44.1278757  18.2913293  37.4003249  44.9648757  19.0053293  37.4103249
  43.2288757  18.7763293  37.8083249  44.4878757  17.0653293  38.2653249
  44.4778757  17.4123293  39.3093249  43.6798757  16.3343293  38.1153249
  45.8398757  16.4023293  37.9593249  45.9478757  15.5213293  38.6083249
  45.8378757  16.0833293  36.9063249  46.9658757  17.3233293  38.1913249
  46.9038757  18.0923293  37.5553249  46.9308757  17.6643293  39.1313249
  47.8278757  16.8383293  38.0443249  44.7028757  17.4553293  33.6023249
  45.0118757  16.2753293  33.4393249  44.1048757  18.2163293  32.6693249
  43.8278757  19.1453293  32.9533249  43.7408757  17.7643293  31.3243249
  43.2728757  16.7803293  31.3573249  42.7318757  18.7713293  30.7353249
  41.8428757  18.7743293  31.3663249  43.1798757  19.7653293  30.7343249
  42.2598757  18.5093293  29.3253249  41.5198757  17.3953293  28.9643249
  41.2678757  17.4963293  27.6573249  40.6868757  16.6823293  27.2253249
  41.7788757  18.5903293  27.1053249  41.7468757  18.9293293  26.1543249
  42.4188757  19.2363293  28.1653249  42.9418757  20.1773293  27.9943249
  44.9578757  17.5533293  30.4003249  44.9238757  16.6393293  29.5773249
  46.0038757  18.3863293  30.5513249  45.9008757  19.1403293  31.2003249
  47.2238757  18.3313293  29.7363249  46.9818757  18.0173293  28.7103249
  47.8758757  19.7303293  29.6843249  47.9538757  20.1053293  30.7153249
  48.8838757  19.6183293  29.2583249  47.0668757  20.7283293  28.8343249
  46.8858757  20.2443293  27.8633249  46.1078757  20.8803293  29.3523249
  47.7498757  22.0883293  28.6093249  48.6558757  21.8983293  28.0153249
  47.0518757  22.7053293  28.0253249  48.1308757  22.8293293  29.9003249
  47.2948757  22.7483293  30.6113249  49.0228757  22.3503293  30.3293249
  48.4158757  24.2513293  29.6363249  47.6848757  24.6393293  29.0743249
  48.4688757  24.7473293  30.5033249  49.2868757  24.3323293  29.1523249
  48.2338757  17.2523293  30.1733249  49.1128757  16.9253293  29.3763249
  48.0958757  16.7073293  31.3963249  47.4048757  17.1153293  31.9933249
  48.9328757  15.6223293  31.9373249  49.8018757  15.4583293  31.2823249
  49.4428757  15.9923293  33.3533249  50.1658757  15.2123293  33.6343249
  49.9648757  16.9553293  33.2503249  48.3618757  16.1083293  34.4473249
  47.6328757  16.8343293  34.0563249  47.8638757  15.1403293  34.6063249
  48.9238757  16.6153293  35.7723249  49.0128757  15.7953293  36.7113249
  49.1968757  17.8323293  35.8553249  48.1238757  14.3303293  31.9243249
  47.0268757  14.1843293  31.3793249  48.5532714  13.3199153  32.4767039
  16.7108757  41.1253293  45.2233249  17.9888757  41.6023293  44.0163249
  18.9570335  41.4533115  44.4944089  17.8758352  42.6666857  43.8102490
  18.0258757  40.8573293  42.6643249  18.3949609  39.8471139  42.8413586
  17.0103070  40.7943463  42.2734882  18.8838757  41.4893293  41.6453249
  19.6956587  41.9941906  41.9712443  18.6748757  41.4493293  40.3143249
  17.7538757  40.7943293  39.8223249  19.6128757  42.2053293  39.4773249
  20.0098757  41.5203293  38.3373249  19.7799327  40.5394174  38.2663460
  20.7138757  42.1153293  37.2773249  20.9408757  41.4093293  36.0813249
  20.5318757  40.0853293  36.0153249  20.8168757  39.3213293  34.8453249
  20.4459885  38.3046416  34.9752819  21.8941699  39.2963140  34.6812774
  20.3286624  39.7795368  33.9839454  21.5848757  42.0733293  35.0243249
  21.7298759  41.5653535  34.0823400  22.0388757  43.3813293  35.1803249
  22.5366818  43.8791455  34.3626397  21.8518757  44.0483293  36.3883249
  22.2379767  45.0496680  36.5093487  21.1678757  43.4363293  37.4523249
  20.9228757  44.1903293  38.7373249  21.3998757  45.3153293  38.9173249
  20.0408757  43.4823293  39.7143249  19.5848757  44.3743293  40.8823249
  19.8139507  45.4157284  40.6562441  18.5102410  44.2623676  41.0262859
  20.1070689  44.0762110  41.7926659  31.3798757  41.6183293  28.5063249
  29.4018757  39.6493293  28.0003249  28.9288757  41.0223293  27.6123249
  27.5358757  40.8673293  26.6323249  29.8968757  42.0033293  26.9943249
  28.1678757  41.8203293  29.1183249  27.5158757  42.6363293  28.8073249
  27.5868757  41.0793293  29.6673249  29.5158757  42.4863293  30.2123249
  29.9718757  43.8043293  29.6443249  30.5108757  41.3653293  30.4443249
  28.6578757  42.7733293  31.6573249  28.9758757  43.4873293  33.1753249
  28.9838757  44.9853293  32.9893249  30.1418757  42.7403293  33.7833249
  27.5428757  43.0243293  34.0223249  26.3118757  43.6303293  33.6613249
  25.5998757  42.8483293  33.3963249  26.4728757  44.2733293  32.7963249
  25.7208757  44.4723293  34.8103249  26.5308757  45.7013293  35.2423249
  25.6878757  46.7673293  35.6543249  26.2258757  47.5183293  35.9173249
  27.4238757  45.1633293  36.3563249  27.8618757  46.0763293  37.3383249
  28.4668757  46.7073293  36.9423249  28.2768757  44.6363293  35.9293249
  27.1528757  46.0343293  34.4113249  24.7138757  44.7883293  34.5383249
  25.6538757  43.6583293  35.9823249  26.4658757  44.1693293  36.9983249
  25.8208757  44.7343293  37.6703249  27.1088757  43.0683293  37.8183249
  28.1468757  42.2793293  37.4723249  28.6058757  42.3053293  36.4953249
  28.5478757  41.4783293  38.4293249  27.7798757  41.8203293  39.4753249
  27.8118757  41.3073293  40.8293249  28.5038757  40.4043293  41.2893249
  26.8918757  41.9843293  41.5873249  26.8308757  41.7153293  42.5583249
  26.0378757  42.9923293  41.1793249  25.2598757  43.5173293  42.1273249
  25.3168757  43.1733293  43.0753249  24.6138757  44.2583293  41.8973249
  25.9838757  43.4153293  39.9603249  26.8868757  42.8003293  39.1403249
  66.7096460  60.7877960  57.4305070  66.6290510  59.8732570  57.1596780
  66.2960880  61.2845030  56.7244780  64.8414500  62.5656980  59.3114340
  64.0656600  62.0857420  59.6012910  65.4927430  61.8862630  59.1370500
  57.2672280  57.8378680  53.9732490  56.3788980  58.1794650  53.8712370
  57.5513470  57.6379000  53.0813320  55.2305290  60.4384330  59.8572190
  55.8021400  59.6706530  59.8575830  55.2306830  60.7373090  58.9478800
  65.3128660  58.0484550  59.5453430  65.6893480  57.1756430  59.4327100
  65.2148170  58.3843250  58.6543870  59.4433670  56.4210180  55.0070870
  59.5500420  57.3213910  55.3139630  58.5326030  56.3728150  54.7165520
  69.0952780  55.5434990  56.4781770  69.9162400  55.0531560  56.5207250
  69.1286860  56.1332650  57.2313610  61.2841400  59.3896550  59.3396050
  61.7919620  59.8877520  59.9801070  61.8154640  58.6131750  59.1635410
  65.9548590  64.1414420  55.1049370  65.3365860  64.6063870  54.5412090
  66.4671840  64.8341900  55.5218880  69.3314260  57.4835370  59.2509310
  68.6269830  57.7720260  59.8312420  69.6926420  58.2935480  58.8908870
  62.9320720  53.2287340  57.9374510  63.2395700  52.6734230  57.2210010
  62.0021420  53.3631800  57.7547500  65.3201480  61.2936170  54.6734630
  64.3930760  61.2273550  54.9023100  65.4726300  62.2316300  54.5589870
  65.3070560  57.5653170  51.6701790  64.3674230  57.7267130  51.7554250
  65.6253820  58.2838850  51.1237780  69.3498770  62.8556470  55.1769880
  68.7311190  62.5176020  54.5296180  69.3323220  62.2116230  55.8849070
  60.9258120  61.8200910  57.4554360  60.5215120  61.1078160  56.9600260
  61.0121240  61.4754150  58.3442400  67.5263470  62.0943280  52.1842630
  67.9656750  61.2565710  52.0380450  68.2391890  62.7272680  52.2706770
  57.6262750  60.7145890  54.9561010  57.5060350  61.4407980  54.3442280
  57.3163640  59.9448800  54.4788920  60.0926410  54.0580960  58.3384680
  59.6494560  54.8390500  58.0069200  60.6511400  54.3810850  59.0455620
  63.2085230  53.6791660  53.2190510  62.5839410  53.6751530  53.9443820
  63.1215350  52.8122620  52.8226480  62.1302310  54.6028290  60.1974280
  62.4274640  55.5091120  60.1166300  62.6787870  54.1147070  59.5833850
  59.8840630  59.1814530  56.0665930  59.6581550  58.9651700  56.9712550
  59.1033160  59.6142990  55.7211900  67.1138390  59.1877900  54.6656580
  66.5147280  59.9113700  54.4820200  67.6618000  59.1254680  53.8833030
  65.7203260  57.8241440  56.6959860  66.1132830  58.1413640  55.8828550
  66.0820110  56.9453320  56.8104380  54.7567430  54.4142240  58.9190060
  54.4680480  54.9845100  59.6315040  55.5013190  53.9346690  59.2821290
  54.9437660  58.3562360  50.1292780  54.8612330  59.2993120  50.2707770
  54.5920720  58.2137270  49.2505130  62.7435790  57.0901390  59.1963130
  62.7471850  56.6491340  58.3467670  63.6386910  57.4118720  59.3034950
  58.5938170  56.9727880  58.1557340  58.2538220  57.4503110  58.9124390
  57.8315490  56.5193000  57.7958440  62.8055940  58.0913470  52.1869890
  62.9268760  58.0499950  53.1355710  62.4204450  58.9537620  52.0316620
  61.8177440  60.4014610  51.5853190  61.2494340  59.9532860  50.9589100
  62.5266440  60.7607390  51.0518340  55.9084250  55.8946860  57.0722010
  55.6231170  55.5302530  57.9100630  55.8463110  55.1627320  56.4585150
  59.3624920  64.3972800  53.8579600  58.5887180  63.8570420  53.6978320
  60.0919550  63.8779410  53.5197360  65.5822840  54.7876120  53.7935380
  64.7687450  54.2889290  53.7180690  65.3884790  55.6274370  53.3771730
  68.2971230  59.1595770  52.0897540  69.1850850  59.4713000  51.9148880
  68.2676320  58.2868020  51.6978120  59.4062320  64.0653180  57.4958410
  59.9240990  63.2621440  57.4415300  58.9546340  64.0032320  58.3375240
  67.1759230  64.6535300  58.1331220  67.5283050  64.0563430  57.4732590
  66.2921560  64.3279530  58.3039470  55.4014910  61.0305810  51.0318710
  56.2709760  61.3130610  51.3154630  54.9105230  61.8441680  50.9167520
  62.5649720  62.4179020  55.1526990  63.0212500  63.2284270  55.3787180
  62.2137930  62.1002160  55.9845480  58.4661500  52.7616670  55.6249510
  58.3376130  52.7534570  56.5734430  57.6423520  53.0999760  55.2740520
  57.3861420  62.8479280  53.1600770  56.7789370  63.5878180  53.1696070
  57.8610770  62.9378640  52.3338970  62.2940270  58.2472990  55.0603100
  61.5856420  58.7159330  55.5016710  62.5784750  57.5895000  55.6948290
  66.3255700  54.9723650  56.4998890  66.2023480  54.9909780  55.5508400
  67.2740260  55.0202590  56.6197290  60.4975290  56.5558070  52.4353810
  61.3465820  56.9928220  52.3694000  60.1306560  56.8678330  53.2625870
  69.4185070  61.1270830  57.3485380  68.4775210  61.1421060  57.5233070
  69.7329140  60.3406790  57.7945680  59.3966710  62.8090430  50.9089340
  60.1629980  62.6971790  51.4714770  59.4741400  62.1128400  50.2566110
  58.0913470  60.2415500  51.5922230  58.1717060  59.2943010  51.7039630
  58.9833220  60.5722380  51.6982890  62.5207890  64.7844610  50.3824690
  62.4158530  64.1696960  51.1086070  62.3532110  64.2610500  49.5987700
  65.7610620  63.8464640  50.9866680  65.2120720  64.2933940  51.6309420
  66.3829880  63.3413890  51.5104350  61.4285740  62.8055560  52.8831980
  61.8502160  62.6395430  53.7263370  61.5536580  61.9955790  52.3887120
  63.9413380  61.8293170  50.1309080  64.4619040  61.1142190  49.7650230
  64.5881780  62.4679040  50.4309590  60.3244640  58.8788790  49.8290140
  60.1233700  58.0156150  50.1903480  60.1536690  58.7922150  48.8911740
  67.8032950  53.6897020  52.3577020  68.0835240  52.8464920  52.7136440
  67.0298680  53.9220130  52.8715770  59.1227440  55.9789410  49.8168020
  59.4253340  55.9856840  48.9087170  59.8622030  55.6287270  50.3135680
  62.3412370  54.9224030  50.8024220  61.9934370  54.2448020  50.2226670
  62.5425140  54.4613540  51.6167610  55.6818010  61.4511680  57.1988590
  55.0266850  61.1823320  56.5548290  56.5195960  61.3416160  56.7490570
  68.6308450  56.2452970  51.4207080  69.0493330  56.0583950  50.5803740
  68.3244510  55.3932020  51.7310010  54.8956090  58.6610610  53.1413920
  53.9920170  58.9240810  52.9665580  55.3796710  58.9321780  52.3613880
  57.4383300  57.7176150  51.0508300  58.1475000  57.2959370  50.5655580
  56.7223240  57.7851380  50.4191650  57.0857460  53.7715480  50.0910950
  57.8085590  54.3124420  50.4092170  57.3581980  53.4978900  49.2152490
  56.5104300  53.8108740  53.6846520  57.2683660  53.9237620  53.1110550
  56.0481470  54.6477940  53.6389950  63.0518110  55.9248010  56.6748830
  62.2392620  55.5504900  56.3344710  63.5559750  55.1693090  56.9770020
  67.5543090  52.5890460  57.9131900  68.1572460  53.1610670  58.3880420
  66.8136080  53.1529900  57.6905800  58.8829450  54.3372790  52.2248490
  59.4122210  53.5502590  52.0956440  59.5157770  55.0163980  52.4584020
  61.0767290  54.0747930  55.2793880  60.4470030  53.3735240  55.4464010
  60.5372430  54.8352060  55.0627040  66.7096460  60.7877960  38.6561580
  66.6290510  59.8732570  38.3853290  66.2960880  61.2845030  37.9501290
  64.8414500  62.5656980  40.5370850  64.0656600  62.0857420  40.8269420
  65.4927430  61.8862630  40.3627010  58.8580330  62.8776790  41.4146610
  58.0265210  62.6225500  41.8143120  59.4661310  62.9487560  42.1504530
  57.2672280  57.8378680  35.1989000  56.3788980  58.1794650  35.0968880
  57.5513470  57.6379000  34.3069830  55.2305290  60.4384330  41.0828700
  55.8021400  59.6706530  41.0832340  55.2306830  60.7373090  40.1735310
  56.4730160  55.8468690  42.8697630  56.2933000  54.9494440  43.1500390
  56.0710240  56.3940560  43.5444580  65.3128660  58.0484550  40.7709940
  65.6893480  57.1756430  40.6583610  65.2148170  58.3843250  39.8800380
  59.4433670  56.4210180  36.2327380  59.5500420  57.3213910  36.5396140
  58.5326030  56.3728150  35.9422030  69.0952780  55.5434990  37.7038280
  69.9162400  55.0531560  37.7463760  69.1286860  56.1332650  38.4570120
  57.0916830  58.3429190  41.4779970  57.7726940  58.6067560  42.0967370
  56.7764880  57.5030060  41.8117980  61.2841400  59.3896550  40.5652560
  61.7919620  59.8877520  41.2057580  61.8154640  58.6131750  40.3891920
  59.5677500  54.0295110  44.8315980  59.5695940  54.5467500  44.0261880
  58.7381810  53.5525290  44.8085910  65.9548590  64.1414420  36.3305880
  65.3365860  64.6063870  35.7668600  66.4671840  64.8341900  36.7475390
  60.8180350  63.6690290  43.0089480  60.4849730  64.2959210  43.6510550
  60.9947030  64.1952170  42.2291150  69.3314260  57.4835370  40.4765820
  68.6269830  57.7720260  41.0568930  69.6926420  58.2935480  40.1165380
  59.2492830  55.7405070  42.8386430  59.5909640  56.5847120  42.5440300
  58.3108640  55.8888810  42.9551770  62.9320720  53.2287340  39.1631020
  63.2395700  52.6734230  38.4466520  62.0021420  53.3631800  38.9804010
  67.8821220  63.8484470  42.7821090  68.2990010  63.6344580  41.9474550
  68.6061040  64.1057260  43.3529710  65.3201480  61.2936170  35.8991140
  64.3930760  61.2273550  36.1279610  65.4726300  62.2316300  35.7846380
  65.3070560  57.5653170  32.8958300  64.3674230  57.7267130  32.9810760
  65.6253820  58.2838850  32.3494290  69.3498770  62.8556470  36.4026390
  68.7311190  62.5176020  35.7552690  69.3323220  62.2116230  37.1105580
  68.7925330  59.0341010  43.8192200  68.3796510  59.8594720  44.0732190
  68.0601280  58.4486050  43.6268560  60.9258120  61.8200910  38.6810870
  60.5215120  61.1078160  38.1856770  61.0121240  61.4754150  39.5698910
  59.6386740  58.5944120  42.4609910  60.1901330  58.7039460  41.6863160
  60.1530250  58.9681720  43.1765140  67.5263470  62.0943280  33.4099140
  67.9656750  61.2565710  33.2636960  68.2391890  62.7272680  33.4963280
  59.3129470  62.1163480  46.0715250  59.1737240  62.9886280  46.4402650
  58.4310830  61.7736290  45.9263190  57.6262750  60.7145890  36.1817520
  57.5060350  61.4407980  35.5698790  57.3163640  59.9448800  35.7045430
  55.2648120  63.8861030  41.9886160  55.3428540  64.0209800  41.0441880
  55.8789800  63.1776920  42.1814280  55.3207640  64.9275200  44.5280620
  55.4838680  64.4580560  43.7099990  55.7860090  64.4198760  45.1929460
  60.0926410  54.0580960  39.5641190  59.6494560  54.8390500  39.2325710
  60.6511400  54.3810850  40.2712130  64.3796220  56.9249480  45.1676510
  63.9175590  57.1332500  45.9796450  63.9774330  56.1108830  44.8647180
  69.3800730  58.1458430  46.2973170  68.5294320  57.8464180  46.6182240
  69.2202520  58.3900440  45.3856990  66.4750440  59.6460180  48.3971960
  66.8003850  58.8123930  48.0574190  67.2630770  60.1688700  48.5450290
  63.2085230  53.6791660  34.4447020  62.5839410  53.6751530  35.1700330
  63.1215350  52.8122620  34.0482990  62.1302310  54.6028290  41.4230790
  62.4274640  55.5091120  41.3422810  62.6787870  54.1147070  40.8090360
  59.8840630  59.1814530  37.2922440  59.6581550  58.9651700  38.1969060
  59.1033160  59.6142990  36.9468410  67.1138390  59.1877900  35.8913090
  66.5147280  59.9113700  35.7076710  67.6618000  59.1254680  35.1089540
  62.3239840  60.0800110  47.9582710  62.2283440  59.1394840  47.8083110
  63.1671820  60.3015180  47.5630780  65.7203260  57.8241440  37.9216370
  66.1132830  58.1413640  37.1085060  66.0820110  56.9453320  38.0360890
  57.4550380  56.4913780  46.1116490  57.0613770  57.3388990  46.3189270
  56.7668780  55.8540150  46.3025130  64.0295430  56.5748750  49.1813230
  63.3393750  56.3820950  49.8159320  64.7727730  56.8583390  49.7137530
  54.7567430  54.4142240  40.1446570  54.4680480  54.9845100  40.8571550
  55.5013190  53.9346690  40.5077800  54.9437660  58.3562360  31.3549290
  54.8612330  59.2993120  31.4964280  54.5920720  58.2137270  30.4761640
  66.3058400  60.4147190  42.0167150  65.5739520  60.9234000  42.3657250
  65.9082740  59.5977170  41.7155930  62.7435790  57.0901390  40.4219640
  62.7471850  56.6491340  39.5724180  63.6386910  57.4118720  40.5291460
  58.5938170  56.9727880  39.3813850  58.2538220  57.4503110  40.1380900
  57.8315490  56.5193000  39.0214950  62.8055940  58.0913470  33.4126400
  62.9268760  58.0499950  34.3612220  62.4204450  58.9537620  33.2573130
  66.7684310  55.8680870  41.4290090  66.7857050  56.3189520  42.2731940
  66.5199890  54.9686510  41.6423530  61.8177440  60.4014610  32.8109700
  61.2494340  59.9532860  32.1845610  62.5266440  60.7607390  32.2774850
  56.8946620  64.3026630  46.6876430  56.5101410  63.6620300  47.2859390
  57.2058810  65.0062750  47.2571160  63.0443760  61.1503170  42.1685050
  63.4113890  60.6761740  42.9146390  62.8548820  62.0244740  42.5093390
  55.9084250  55.8946860  38.2978520  55.6231170  55.5302530  39.1357140
  55.8463110  55.1627320  37.6841660  60.8343130  60.1911810  44.4869260
  60.5300200  61.0703790  44.7119620  61.7889590  60.2511600  44.5226700
  59.3624920  64.3972800  35.0836110  58.5887180  63.8570420  34.9234830
  60.0919550  63.8779410  34.7453870  65.5822840  54.7876120  35.0191890
  64.7687450  54.2889290  34.9437200  65.3884790  55.6274370  34.6028240
  65.5031700  63.4647220  46.7631500  65.4369010  62.5442890  46.5089090
  64.8736840  63.5622660  47.4776140  68.2971230  59.1595770  33.3154050
  69.1850850  59.4713000  33.1405390  68.2676320  58.2868020  32.9234630
  59.4062320  64.0653180  38.7214920  59.9240990  63.2621440  38.6671810
  58.9546340  64.0032320  39.5631750  56.8906860  61.0314550  45.6340620
  56.5321800  61.6968400  46.2213960  56.5961420  60.1998100  46.0053240
  60.0919980  61.4898790  48.5180170  59.7920120  61.6355970  47.6207990
  60.8631220  60.9304080  48.4253560  67.1759230  64.6535300  39.3587730
  67.5283050  64.0563430  38.6989100  66.2921560  64.3279530  39.5295980
  55.4014910  61.0305810  32.2575220  56.2709760  61.3130610  32.5411140
  54.9105230  61.8441680  32.1424030  62.5649720  62.4179020  36.3783500
  63.0212500  63.2284270  36.6043690  62.2137930  62.1002160  37.2101990
  58.4661500  52.7616670  36.8506020  58.3376130  52.7534570  37.7990940
  57.6423520  53.0999760  36.4997030  55.4655430  54.5207790  46.3112720
  54.7513950  54.7204710  46.9165330  55.8850470  53.7447360  46.6827520
  57.3861420  62.8479280  34.3857280  56.7789370  63.5878180  34.3952580
  57.8610770  62.9378640  33.5595480  66.9594210  57.0130100  44.0614170
  67.3275030  56.1925310  44.3893740  66.0992410  57.0731990  44.4769820
  62.2940270  58.2472990  36.2859610  61.5856420  58.7159330  36.7273220
  62.5784750  57.5895000  36.9204800  63.9196200  59.6669690  44.2852140
  64.4181450  60.1415510  44.9503990  64.0619150  58.7433210  44.4922170
  66.3255700  54.9723650  37.7255400  66.2023480  54.9909780  36.7764910
  67.2740260  55.0202590  37.8453800  60.4975290  56.5558070  33.6610320
  61.3465820  56.9928220  33.5950510  60.1306560  56.8678330  34.4882380
  69.4185070  61.1270830  38.5741890  68.4775210  61.1421060  38.7489580
  69.7329140  60.3406790  39.0202190  59.3966710  62.8090430  32.1345850
  60.1629980  62.6971790  32.6971280  59.4741400  62.1128400  31.4822620
  58.0913470  60.2415500  32.8178740  58.1717060  59.2943010  32.9296140
  58.9833220  60.5722380  32.9239400  55.6184270  62.0630420  48.0534910
  56.1223290  61.4837700  48.6251140  54.8791690  62.3470650  48.5911280
  62.5207890  64.7844610  31.6081200  62.4158530  64.1696960  32.3342580
  62.3532110  64.2610500  30.8244210  62.6722210  63.4701410  47.5870430
  61.9067880  64.0386410  47.5025100  62.8538170  63.1777620  46.6938660
  65.7610620  63.8464640  32.2123190  65.2120720  64.2933940  32.8565930
  66.3829880  63.3413890  32.7360860  57.6507350  60.2060010  48.9484980
  57.6912690  59.9073880  49.8570210  58.5052850  60.6067620  48.7892500
  61.4285740  62.8055560  34.1088490  61.8502160  62.6395430  34.9519880
  61.5536580  61.9955790  33.6143630  59.5913160  58.7852110  46.9159470
  59.0609620  58.2943060  46.2882810  60.2601230  59.2136310  46.3817400
  63.9413380  61.8293170  31.3565590  64.4619040  61.1142190  30.9906740
  64.5881780  62.4679040  31.6566100  68.4891220  63.2521570  46.6800660
  68.9032240  63.4066650  47.5291080  67.5542220  63.3776790  46.8426440
  68.9613390  60.5917730  48.6839810  69.5434160  59.8370050  48.5960290
  69.1375160  61.1225170  47.9071290  60.0785460  55.7514480  46.9956760
  59.9842330  55.1335230  46.2707630  59.4982850  56.4780770  46.7686670
  62.8446900  54.3087720  44.0284150  62.3964200  54.3311980  43.1829700
  62.2112100  53.9106740  44.6254450  63.2506450  63.2042050  44.6496590
  63.6694560  64.0474780  44.4772830  62.3315080  63.3414090  44.4203370
  65.5870350  60.9358230  46.0334430  65.7066560  60.3399370  46.7729270
  66.4464350  60.9727920  45.6135730  67.9258250  61.4895420  44.6096940
  67.3993470  62.0138040  44.0062080  68.2689590  62.1222810  45.2406670
  60.3244640  58.8788790  31.0546650  60.1233700  58.0156150  31.4159990
  60.1536690  58.7922150  30.1168250  62.3539120  57.4779580  47.2910250
  62.9438810  57.1695430  47.9788070  61.5359360  57.0059330  47.4470150
  67.1732550  57.0945390  47.5243270  66.4848070  56.4326930  47.4593260
  67.8938570  56.6483660  47.9691730  67.8032950  53.6897020  33.5833530
  68.0835240  52.8464920  33.9392950  67.0298680  53.9220130  34.0972280
  59.1227440  55.9789410  31.0424530  59.4253340  55.9856840  30.1343680
  59.8622030  55.6287270  31.5392190  62.3412370  54.9224030  32.0280730
  61.9934370  54.2448020  31.4483180  62.5425140  54.4613540  32.8424120
  55.6818010  61.4511680  38.4245100  55.0266850  61.1823320  37.7804800
  56.5195960  61.3416160  37.9747080  68.6308450  56.2452970  32.6463590
  69.0493330  56.0583950  31.8060250  68.3244510  55.3932020  32.9566520
  56.7193940  61.8364250  42.9648440  57.0866980  61.7491650  43.8444460
  56.1504760  61.0730800  42.8655300  56.2709940  58.7473340  46.8706860
  55.3765990  58.7140100  47.2100570  56.8107490  58.9460130  47.6358110
  54.8956090  58.6610610  34.3670430  53.9920170  58.9240810  34.1922090
  55.3796710  58.9321780  33.5870390  57.4383300  57.7176150  32.2764810
  58.1475000  57.2959370  31.7912090  56.7223240  57.7851380  31.6448160
  57.0857460  53.7715480  31.3167460  57.8085590  54.3124420  31.6348680
  57.3581980  53.4978900  30.4409000  56.7749650  53.0221670  41.2190080
  57.4225840  52.4719050  40.7785240  57.1951490  53.2764820  42.0405890
  56.5281650  53.1777340  43.9615400  56.1796470  53.6341160  44.7273580
  56.1969350  52.2834470  44.0437830  64.0406470  54.3689220  47.4834820
  63.9795360  54.9611050  48.2330230  64.9806850  54.2615180  47.3385080
  66.6781030  54.0259280  47.1227110  67.2921440  54.3438570  46.4608190
  67.2230590  53.5407870  47.7422970  57.2002290  52.7053540  47.2366170
  57.7485280  52.5241590  46.4732280  57.2657600  51.9147650  47.7722480
  67.4189070  52.5891420  43.4496400  66.5448910  52.9226530  43.2469330
  67.3099820  52.1164600  44.2748270  68.3261050  54.7962290  44.8338120
  67.9974410  53.9814050  44.4539850  69.2743350  54.7532100  44.7103810
  65.1663890  53.5061260  42.3889310  64.3835680  53.9806760  42.6686070
  64.8726820  52.6016090  42.2802490  56.5104300  53.8108740  34.9103030
  57.2683660  53.9237620  34.3367060  56.0481470  54.6477940  34.8646460
  63.0518110  55.9248010  37.9005340  62.2392620  55.5504900  37.5601220
  63.5559750  55.1693090  38.2026530  67.5543090  52.5890460  39.1388410
  68.1572460  53.1610670  39.6136930  66.8136080  53.1529900  38.9162310
  58.8829450  54.3372790  33.4505000  59.4122210  53.5502590  33.3212950
  59.5157770  55.0163980  33.6840530  61.0767290  54.0747930  36.5050390
  60.4470030  53.3735240  36.6720520  60.5372430  54.8352060  36.2883550
  61.2022850  53.3531910  48.9402880  60.9207120  53.8565510  48.1763700
  61.5842550  52.5553660  48.5745010  67.8038310  52.7685490  49.5183350
  67.6903760  53.0880100  50.4134870  68.6208050  53.1698000  49.2220630
  66.7096460  60.7877960  19.8818090  66.6290510  59.8732570  19.6109800
  66.2960880  61.2845030  19.1757800  64.8414500  62.5656980  21.7627360
  64.0656600  62.0857420  22.0525930  65.4927430  61.8862630  21.5883520
  58.8580330  62.8776790  22.6403120  58.0265210  62.6225500  23.0399630
  59.4661310  62.9487560  23.3761040  57.2672280  57.8378680  16.4245510
  56.3788980  58.1794650  16.3225390  57.5513470  57.6379000  15.5326340
  55.2305290  60.4384330  22.3085210  55.8021400  59.6706530  22.3088850
  55.2306830  60.7373090  21.3991820  56.4730160  55.8468690  24.0954140
  56.2933000  54.9494440  24.3756900  56.0710240  56.3940560  24.7701090
  65.3128660  58.0484550  21.9966450  65.6893480  57.1756430  21.8840120
  65.2148170  58.3843250  21.1056890  59.4433670  56.4210180  17.4583890
  59.5500420  57.3213910  17.7652650  58.5326030  56.3728150  17.1678540
  69.0952780  55.5434990  18.9294790  69.9162400  55.0531560  18.9720270
  69.1286860  56.1332650  19.6826630  57.0916830  58.3429190  22.7036480
  57.7726940  58.6067560  23.3223880  56.7764880  57.5030060  23.0374490
  61.2841400  59.3896550  21.7909070  61.7919620  59.8877520  22.4314090
  61.8154640  58.6131750  21.6148430  59.5677500  54.0295110  26.0572490
  59.5695940  54.5467500  25.2518390  58.7381810  53.5525290  26.0342420
  65.9548590  64.1414420  17.5562390  65.3365860  64.6063870  16.9925110
  66.4671840  64.8341900  17.9731900  60.8180350  63.6690290  24.2345990
  60.4849730  64.2959210  24.8767060  60.9947030  64.1952170  23.4547660
  69.3314260  57.4835370  21.7022330  68.6269830  57.7720260  22.2825440
  69.6926420  58.2935480  21.3421890  59.2492830  55.7405070  24.0642940
  59.5909640  56.5847120  23.7696810  58.3108640  55.8888810  24.1808280
  62.9320720  53.2287340  20.3887530  63.2395700  52.6734230  19.6723030
  62.0021420  53.3631800  20.2060520  67.8821220  63.8484470  24.0077600
  68.2990010  63.6344580  23.1731060  68.6061040  64.1057260  24.5786220
  65.3201480  61.2936170  17.1247650  64.3930760  61.2273550  17.3536120
  65.4726300  62.2316300  17.0102890  65.3070560  57.5653170  14.1214810
  64.3674230  57.7267130  14.2067270  65.6253820  58.2838850  13.5750800
  69.3498770  62.8556470  17.6282900  68.7311190  62.5176020  16.9809200
  69.3323220  62.2116230  18.3362090  68.7925330  59.0341010  25.0448710
  68.3796510  59.8594720  25.2988700  68.0601280  58.4486050  24.8525070
  60.9258120  61.8200910  19.9067380  60.5215120  61.1078160  19.4113280
  61.0121240  61.4754150  20.7955420  59.6386740  58.5944120  23.6866420
  60.1901330  58.7039460  22.9119670  60.1530250  58.9681720  24.4021650
  67.5263470  62.0943280  14.6355650  67.9656750  61.2565710  14.4893470
  68.2391890  62.7272680  14.7219790  59.3129470  62.1163480  27.2971760
  59.1737240  62.9886280  27.6659160  58.4310830  61.7736290  27.1519700
  57.6262750  60.7145890  17.4074030  57.5060350  61.4407980  16.7955300
  57.3163640  59.9448800  16.9301940  55.2648120  63.8861030  23.2142670
  55.3428540  64.0209800  22.2698390  55.8789800  63.1776920  23.4070790
  55.3207640  64.9275200  25.7537130  55.4838680  64.4580560  24.9356500
  55.7860090  64.4198760  26.4185970  60.0926410  54.0580960  20.7897700
  59.6494560  54.8390500  20.4582220  60.6511400  54.3810850  21.4968640
  64.3796220  56.9249480  26.3933020  63.9175590  57.1332500  27.2052960
  63.9774330  56.1108830  26.0903690  69.3800730  58.1458430  27.5229680
  68.5294320  57.8464180  27.8438750  69.2202520  58.3900440  26.6113500
  66.4750440  59.6460180  29.6228470  66.8003850  58.8123930  29.2830700
  67.2630770  60.1688700  29.7706800  63.2085230  53.6791660  15.6703530
  62.5839410  53.6751530  16.3956840  63.1215350  52.8122620  15.2739500
  62.1302310  54.6028290  22.6487300  62.4274640  55.5091120  22.5679320
  62.6787870  54.1147070  22.0346870  59.8840630  59.1814530  18.5178950
  59.6581550  58.9651700  19.4225570  59.1033160  59.6142990  18.1724920
  67.1138390  59.1877900  17.1169600  66.5147280  59.9113700  16.9333220
  67.6618000  59.1254680  16.3346050  62.3239840  60.0800110  29.1839220
  62.2283440  59.1394840  29.0339620  63.1671820  60.3015180  28.7887290
  65.7203260  57.8241440  19.1472880  66.1132830  58.1413640  18.3341570
  66.0820110  56.9453320  19.2617400  57.4550380  56.4913780  27.3373000
  57.0613770  57.3388990  27.5445780  56.7668780  55.8540150  27.5281640
  64.0295430  56.5748750  30.4069740  63.3393750  56.3820950  31.0415830
  64.7727730  56.8583390  30.9394040  54.7567430  54.4142240  21.3703080
  54.4680480  54.9845100  22.0828060  55.5013190  53.9346690  21.7334310
  54.9437660  58.3562360  12.5805800  54.8612330  59.2993120  12.7220790
  54.5920720  58.2137270  11.7018150  66.3058400  60.4147190  23.2423660
  65.5739520  60.9234000  23.5913760  65.9082740  59.5977170  22.9412440
  62.7435790  57.0901390  21.6476150  62.7471850  56.6491340  20.7980690
  63.6386910  57.4118720  21.7547970  58.5938170  56.9727880  20.6070360
  58.2538220  57.4503110  21.3637410  57.8315490  56.5193000  20.2471460
  62.8055940  58.0913470  14.6382910  62.9268760  58.0499950  15.5868730
  62.4204450  58.9537620  14.4829640  66.7684310  55.8680870  22.6546600
  66.7857050  56.3189520  23.4988450  66.5199890  54.9686510  22.8680040
  61.8177440  60.4014610  14.0366210  61.2494340  59.9532860  13.4102120
  62.5266440  60.7607390  13.5031360  56.8946620  64.3026630  27.9132940
  56.5101410  63.6620300  28.5115900  57.2058810  65.0062750  28.4827670
  63.0443760  61.1503170  23.3941560  63.4113890  60.6761740  24.1402900
  62.8548820  62.0244740  23.7349900  55.9084250  55.8946860  19.5235030
  55.6231170  55.5302530  20.3613650  55.8463110  55.1627320  18.9098170
  60.8343130  60.1911810  25.7125770  60.5300200  61.0703790  25.9376130
  61.7889590  60.2511600  25.7483210  59.3624920  64.3972800  16.3092620
  58.5887180  63.8570420  16.1491340  60.0919550  63.8779410  15.9710380
  65.5822840  54.7876120  16.2448400  64.7687450  54.2889290  16.1693710
  65.3884790  55.6274370  15.8284750  65.5031700  63.4647220  27.9888010
  65.4369010  62.5442890  27.7345600  64.8736840  63.5622660  28.7032650
  68.2971230  59.1595770  14.5410560  69.1850850  59.4713000  14.3661900
  68.2676320  58.2868020  14.1491140  59.4062320  64.0653180  19.9471430
  59.9240990  63.2621440  19.8928320  58.9546340  64.0032320  20.7888260
  56.8906860  61.0314550  26.8597130  56.5321800  61.6968400  27.4470470
  56.5961420  60.1998100  27.2309750  60.0919980  61.4898790  29.7436680
  59.7920120  61.6355970  28.8464500  60.8631220  60.9304080  29.6510070
  67.1759230  64.6535300  20.5844240  67.5283050  64.0563430  19.9245610
  66.2921560  64.3279530  20.7552490  55.4014910  61.0305810  13.4831730
  56.2709760  61.3130610  13.7667650  54.9105230  61.8441680  13.3680540
  62.5649720  62.4179020  17.6040010  63.0212500  63.2284270  17.8300200
  62.2137930  62.1002160  18.4358500  58.4661500  52.7616670  18.0762530
  58.3376130  52.7534570  19.0247450  57.6423520  53.0999760  17.7253540
  55.4655430  54.5207790  27.5369230  54.7513950  54.7204710  28.1421840
  55.8850470  53.7447360  27.9084030  57.3861420  62.8479280  15.6113790
  56.7789370  63.5878180  15.6209090  57.8610770  62.9378640  14.7851990
  66.9594210  57.0130100  25.2870680  67.3275030  56.1925310  25.6150250
  66.0992410  57.0731990  25.7026330  62.2940270  58.2472990  17.5116120
  61.5856420  58.7159330  17.9529730  62.5784750  57.5895000  18.1461310
  63.9196200  59.6669690  25.5108650  64.4181450  60.1415510  26.1760500
  64.0619150  58.7433210  25.7178680  66.3255700  54.9723650  18.9511910
  66.2023480  54.9909780  18.0021420  67.2740260  55.0202590  19.0710310
  60.4975290  56.5558070  14.8866830  61.3465820  56.9928220  14.8207020
  60.1306560  56.8678330  15.7138890  69.4185070  61.1270830  19.7998400
  68.4775210  61.1421060  19.9746090  69.7329140  60.3406790  20.2458700
  59.3966710  62.8090430  13.3602360  60.1629980  62.6971790  13.9227790
  59.4741400  62.1128400  12.7079130  58.0913470  60.2415500  14.0435250
  58.1717060  59.2943010  14.1552650  58.9833220  60.5722380  14.1495910
  55.6184270  62.0630420  29.2791420  56.1223290  61.4837700  29.8507650
  54.8791690  62.3470650  29.8167790  62.5207890  64.7844610  12.8337710
  62.4158530  64.1696960  13.5599090  62.3532110  64.2610500  12.0500720
  62.6722210  63.4701410  28.8126940  61.9067880  64.0386410  28.7281610
  62.8538170  63.1777620  27.9195170  65.7610620  63.8464640  13.4379700
  65.2120720  64.2933940  14.0822440  66.3829880  63.3413890  13.9617370
  57.6507350  60.2060010  30.1741490  57.6912690  59.9073880  31.0826720
  58.5052850  60.6067620  30.0149010  61.4285740  62.8055560  15.3345000
  61.8502160  62.6395430  16.1776390  61.5536580  61.9955790  14.8400140
  59.5913160  58.7852110  28.1415980  59.0609620  58.2943060  27.5139320
  60.2601230  59.2136310  27.6073910  63.9413380  61.8293170  12.5822100
  64.4619040  61.1142190  12.2163250  64.5881780  62.4679040  12.8822610
  68.4891220  63.2521570  27.9057170  68.9032240  63.4066650  28.7547590
  67.5542220  63.3776790  28.0682950  68.9613390  60.5917730  29.9096320
  69.5434160  59.8370050  29.8216800  69.1375160  61.1225170  29.1327800
  60.0785460  55.7514480  28.2213270  59.9842330  55.1335230  27.4964140
  59.4982850  56.4780770  27.9943180  62.8446900  54.3087720  25.2540660
  62.3964200  54.3311980  24.4086210  62.2112100  53.9106740  25.8510960
  63.2506450  63.2042050  25.8753100  63.6694560  64.0474780  25.7029340
  62.3315080  63.3414090  25.6459880  65.5870350  60.9358230  27.2590940
  65.7066560  60.3399370  27.9985780  66.4464350  60.9727920  26.8392240
  67.9258250  61.4895420  25.8353450  67.3993470  62.0138040  25.2318590
  68.2689590  62.1222810  26.4663180  60.3244640  58.8788790  12.2803160
  60.1233700  58.0156150  12.6416500  60.1536690  58.7922150  11.3424760
  62.3539120  57.4779580  28.5166760  62.9438810  57.1695430  29.2044580
  61.5359360  57.0059330  28.6726660  67.1732550  57.0945390  28.7499780
  66.4848070  56.4326930  28.6849770  67.8938570  56.6483660  29.1948240
  67.8032950  53.6897020  14.8090040  68.0835240  52.8464920  15.1649460
  67.0298680  53.9220130  15.3228790  59.1227440  55.9789410  12.2681040
  59.4253340  55.9856840  11.3600190  59.8622030  55.6287270  12.7648700
  62.3412370  54.9224030  13.2537240  61.9934370  54.2448020  12.6739690
  62.5425140  54.4613540  14.0680630  55.6818010  61.4511680  19.6501610
  55.0266850  61.1823320  19.0061310  56.5195960  61.3416160  19.2003590
  68.6308450  56.2452970  13.8720100  69.0493330  56.0583950  13.0316760
  68.3244510  55.3932020  14.1823030  56.7193940  61.8364250  24.1904950
  57.0866980  61.7491650  25.0700970  56.1504760  61.0730800  24.0911810
  56.2709940  58.7473340  28.0963370  55.3765990  58.7140100  28.4357080
  56.8107490  58.9460130  28.8614620  54.8956090  58.6610610  15.5926940
  53.9920170  58.9240810  15.4178600  55.3796710  58.9321780  14.8126900
  57.4383300  57.7176150  13.5021320  58.1475000  57.2959370  13.0168600
  56.7223240  57.7851380  12.8704670  57.0857460  53.7715480  12.5423970
  57.8085590  54.3124420  12.8605190  57.3581980  53.4978900  11.6665510
  56.7749650  53.0221670  22.4446590  57.4225840  52.4719050  22.0041750
  57.1951490  53.2764820  23.2662400  56.5281650  53.1777340  25.1871910
  56.1796470  53.6341160  25.9530090  56.1969350  52.2834470  25.2694340
  64.0406470  54.3689220  28.7091330  63.9795360  54.9611050  29.4586740
  64.9806850  54.2615180  28.5641590  66.6781030  54.0259280  28.3483620
  67.2921440  54.3438570  27.6864700  67.2230590  53.5407870  28.9679480
  57.2002290  52.7053540  28.4622680  57.7485280  52.5241590  27.6988790
  57.2657600  51.9147650  28.9978990  67.4189070  52.5891420  24.6752910
  66.5448910  52.9226530  24.4725840  67.3099820  52.1164600  25.5004780
  68.3261050  54.7962290  26.0594630  67.9974410  53.9814050  25.6796360
  69.2743350  54.7532100  25.9360320  65.1663890  53.5061260  23.6145820
  64.3835680  53.9806760  23.8942580  64.8726820  52.6016090  23.5059000
  56.5104300  53.8108740  16.1359540  57.2683660  53.9237620  15.5623570
  56.0481470  54.6477940  16.0902970  63.0518110  55.9248010  19.1261850
  62.2392620  55.5504900  18.7857730  63.5559750  55.1693090  19.4283040
  67.5543090  52.5890460  20.3644920  68.1572460  53.1610670  20.8393440
  66.8136080  53.1529900  20.1418820  58.8829450  54.3372790  14.6761510
  59.4122210  53.5502590  14.5469460  59.5157770  55.0163980  14.9097040
  61.0767290  54.0747930  17.7306900  60.4470030  53.3735240  17.8977030
  60.5372430  54.8352060  17.5140060  61.2022850  53.3531910  30.1659390
  60.9207120  53.8565510  29.4020210  61.5842550  52.5553660  29.8001520
  67.8038310  52.7685490  30.7439860  67.6903760  53.0880100  31.6391380
  68.6208050  53.1698000  30.4477140  64.8414500  62.5656980   2.9883870
  64.0656600  62.0857420   3.2782440  65.4927430  61.8862630   2.8140030
  58.8580330  62.8776790   3.8659630  58.0265210  62.6225500   4.2656140
  59.4661310  62.9487560   4.6017550  55.2305290  60.4384330   3.5341720
  55.8021400  59.6706530   3.5345360  55.2306830  60.7373090   2.6248330
  56.4730160  55.8468690   5.3210650  56.2933000  54.9494440   5.6013410
  56.0710240  56.3940560   5.9957600  65.3128660  58.0484550   3.2222960
  65.6893480  57.1756430   3.1096630  65.2148170  58.3843250   2.3313400
  57.0916830  58.3429190   3.9292990  57.7726940  58.6067560   4.5480390
  56.7764880  57.5030060   4.2631000  61.2841400  59.3896550   3.0165580
  61.7919620  59.8877520   3.6570600  61.8154640  58.6131750   2.8404940
  59.5677500  54.0295110   7.2829000  59.5695940  54.5467500   6.4774900
  58.7381810  53.5525290   7.2598930  60.8180350  63.6690290   5.4602500
  60.4849730  64.2959210   6.1023570  60.9947030  64.1952170   4.6804170
  69.3314260  57.4835370   2.9278840  68.6269830  57.7720260   3.5081950
  69.6926420  58.2935480   2.5678400  59.2492830  55.7405070   5.2899450
  59.5909640  56.5847120   4.9953320  58.3108640  55.8888810   5.4064790
  67.8821220  63.8484470   5.2334110  68.2990010  63.6344580   4.3987570
  68.6061040  64.1057260   5.8042730  68.7925330  59.0341010   6.2705220
  68.3796510  59.8594720   6.5245210  68.0601280  58.4486050   6.0781580
  59.6386740  58.5944120   4.9122930  60.1901330  58.7039460   4.1376180
  60.1530250  58.9681720   5.6278160  59.3129470  62.1163480   8.5228270
  59.1737240  62.9886280   8.8915670  58.4310830  61.7736290   8.3776210
  55.2648120  63.8861030   4.4399180  55.3428540  64.0209800   3.4954900
  55.8789800  63.1776920   4.6327300  55.3207640  64.9275200   6.9793640
  55.4838680  64.4580560   6.1613010  55.7860090  64.4198760   7.6442480
  60.0926410  54.0580960   2.0154210  59.6494560  54.8390500   1.6838730
  60.6511400  54.3810850   2.7225150  64.3796220  56.9249480   7.6189530
  63.9175590  57.1332500   8.4309470  63.9774330  56.1108830   7.3160200
  69.3800730  58.1458430   8.7486190  68.5294320  57.8464180   9.0695260
  69.2202520  58.3900440   7.8370010  66.4750440  59.6460180  10.8484980
  66.8003850  58.8123930  10.5087210  67.2630770  60.1688700  10.9963310
  62.1302310  54.6028290   3.8743810  62.4274640  55.5091120   3.7935830
  62.6787870  54.1147070   3.2603380  62.3239840  60.0800110  10.4095730
  62.2283440  59.1394840  10.2596130  63.1671820  60.3015180  10.0143800
  57.4550380  56.4913780   8.5629510  57.0613770  57.3388990   8.7702290
  56.7668780  55.8540150   8.7538150  64.0295430  56.5748750  11.6326250
  63.3393750  56.3820950  12.2672340  64.7727730  56.8583390  12.1650550
  54.7567430  54.4142240   2.5959590  54.4680480  54.9845100   3.3084570
  55.5013190  53.9346690   2.9590820  66.3058400  60.4147190   4.4680170
  65.5739520  60.9234000   4.8170270  65.9082740  59.5977170   4.1668950
  62.7435790  57.0901390   2.8732660  62.7471850  56.6491340   2.0237200
  63.6386910  57.4118720   2.9804480  58.5938170  56.9727880   1.8326870
  58.2538220  57.4503110   2.5893920  57.8315490  56.5193000   1.4727970
  66.7684310  55.8680870   3.8803110  66.7857050  56.3189520   4.7244960
  66.5199890  54.9686510   4.0936550  56.8946620  64.3026630   9.1389450
  56.5101410  63.6620300   9.7372410  57.2058810  65.0062750   9.7084180
  63.0443760  61.1503170   4.6198070  63.4113890  60.6761740   5.3659410
  62.8548820  62.0244740   4.9606410  60.8343130  60.1911810   6.9382280
  60.5300200  61.0703790   7.1632640  61.7889590  60.2511600   6.9739720
  65.5031700  63.4647220   9.2144520  65.4369010  62.5442890   8.9602110
  64.8736840  63.5622660   9.9289160  56.8906860  61.0314550   8.0853640
  56.5321800  61.6968400   8.6726980  56.5961420  60.1998100   8.4566260
  60.0919980  61.4898790  10.9693190  59.7920120  61.6355970  10.0721010
  60.8631220  60.9304080  10.8766580  55.4655430  54.5207790   8.7625740
  54.7513950  54.7204710   9.3678350  55.8850470  53.7447360   9.1340540
  66.9594210  57.0130100   6.5127190  67.3275030  56.1925310   6.8406760
  66.0992410  57.0731990   6.9282840  63.9196200  59.6669690   6.7365160
  64.4181450  60.1415510   7.4017010  64.0619150  58.7433210   6.9435190
  55.6184270  62.0630420  10.5047930  56.1223290  61.4837700  11.0764160
  54.8791690  62.3470650  11.0424300  62.6722210  63.4701410  10.0383450
  61.9067880  64.0386410   9.9538120  62.8538170  63.1777620   9.1451680
  57.6507350  60.2060010  11.3998000  57.6912690  59.9073880  12.3083230
  58.5052850  60.6067620  11.2405520  59.5913160  58.7852110   9.3672490
  59.0609620  58.2943060   8.7395830  60.2601230  59.2136310   8.8330420
  68.4891220  63.2521570   9.1313680  68.9032240  63.4066650   9.9804100
  67.5542220  63.3776790   9.2939460  68.9613390  60.5917730  11.1352830
  69.5434160  59.8370050  11.0473310  69.1375160  61.1225170  10.3584310
  60.0785460  55.7514480   9.4469780  59.9842330  55.1335230   8.7220650
  59.4982850  56.4780770   9.2199690  62.8446900  54.3087720   6.4797170
  62.3964200  54.3311980   5.6342720  62.2112100  53.9106740   7.0767470
  63.2506450  63.2042050   7.1009610  63.6694560  64.0474780   6.9285850
  62.3315080  63.3414090   6.8716390  65.5870350  60.9358230   8.4847450
  65.7066560  60.3399370   9.2242290  66.4464350  60.9727920   8.0648750
  67.9258250  61.4895420   7.0609960  67.3993470  62.0138040   6.4575100
  68.2689590  62.1222810   7.6919690  62.3539120  57.4779580   9.7423270
  62.9438810  57.1695430  10.4301090  61.5359360  57.0059330   9.8983170
  67.1732550  57.0945390   9.9756290  66.4848070  56.4326930   9.9106280
  67.8938570  56.6483660  10.4204750  56.7193940  61.8364250   5.4161460
  57.0866980  61.7491650   6.2957480  56.1504760  61.0730800   5.3168320
  56.2709940  58.7473340   9.3219880  55.3765990  58.7140100   9.6613590
  56.8107490  58.9460130  10.0871130  56.7749650  53.0221670   3.6703100
  57.4225840  52.4719050   3.2298260  57.1951490  53.2764820   4.4918910
  56.5281650  53.1777340   6.4128420  56.1796470  53.6341160   7.1786600
  56.1969350  52.2834470   6.4950850  64.0406470  54.3689220   9.9347840
  63.9795360  54.9611050  10.6843250  64.9806850  54.2615180   9.7898100
  66.6781030  54.0259280   9.5740130  67.2921440  54.3438570   8.9121210
  67.2230590  53.5407870  10.1935990  57.2002290  52.7053540   9.6879190
  57.7485280  52.5241590   8.9245300  57.2657600  51.9147650  10.2235500
  67.4189070  52.5891420   5.9009420  66.5448910  52.9226530   5.6982350
  67.3099820  52.1164600   6.7261290  68.3261050  54.7962290   7.2851140
  67.9974410  53.9814050   6.9052870  69.2743350  54.7532100   7.1616830
  65.1663890  53.5061260   4.8402330  64.3835680  53.9806760   5.1199090
  64.8726820  52.6016090   4.7315510  61.2022850  53.3531910  11.3915900
  60.9207120  53.8565510  10.6276720  61.5842550  52.5553660  11.0258030
  67.8038310  52.7685490  11.9696370  67.6903760  53.0880100  12.8647890
  68.6208050  53.1698000  11.6733650  66.7096460  42.0134470  57.4305070
  66.6290510  41.0989080  57.1596780  66.2960880  42.5101540  56.7244780
  64.8414500  43.7913490  59.3114340  64.0656600  43.3113930  59.6012910
  65.4927430  43.1119140  59.1370500  68.8621930  48.1973680  58.0913470
  68.4003460  47.4260920  58.4200640  69.6747480  48.2239750  58.5965920
  57.2672280  39.0635190  53.9732490  56.3788980  39.4051160  53.8712370
  57.5513470  38.8635510  53.0813320  55.2305290  41.6640840  59.8572190
  55.8021400  40.8963040  59.8575830  55.2306830  41.9629600  58.9478800
  65.0885240  50.4831690  57.7117460  64.4696680  50.9389190  57.1411900
  65.9437020  50.6383150  57.3107160  64.2823490  46.4670680  59.3184500
  64.2131770  45.5260620  59.1573630  65.0443350  46.5572090  59.8907070
  65.3128660  39.2741060  59.5453430  65.6893480  38.4012940  59.4327100
  65.2148170  39.6099760  58.6543870  59.4433670  37.6466690  55.0070870
  59.5500420  38.5470420  55.3139630  58.5326030  37.5984660  54.7165520
  69.0952780  36.7691500  56.4781770  69.9162400  36.2788070  56.5207250
  69.1286860  37.3589160  57.2313610  61.2841400  40.6153060  59.3396050
  61.7919620  41.1134030  59.9801070  61.8154640  39.8388260  59.1635410
  65.9548590  45.3670930  55.1049370  65.3365860  45.8320380  54.5412090
  66.4671840  46.0598410  55.5218880  69.3314260  38.7091880  59.2509310
  68.6269830  38.9976770  59.8312420  69.6926420  39.5191990  58.8908870
  55.3231790  46.0527460  52.4789000  54.9459770  46.5414560  51.7473900
  55.5804860  46.7252740  53.1095530  62.9320720  34.4543850  57.9374510
  63.2395700  33.8990740  57.2210010  62.0021420  34.5888310  57.7547500
  68.4835780  50.1711140  60.2281970  68.4962940  49.7673430  59.3604230
  67.9311000  50.9458430  60.1243400  69.7781200  46.8927360  55.3172140
  69.6677530  45.9501690  55.4421560  69.7749450  47.2543000  56.2034900
  65.3201480  42.5192680  54.6734630  64.3930760  42.4530060  54.9023100
  65.4726300  43.4572810  54.5589870  65.3070560  38.7909680  51.6701790
  64.3674230  38.9523640  51.7554250  65.6253820  39.5095360  51.1237780
  69.3498770  44.0812980  55.1769880  68.7311190  43.7432530  54.5296180
  69.3323220  43.4372740  55.8849070  60.9258120  43.0457420  57.4554360
  60.5215120  42.3334670  56.9600260  61.0121240  42.7010660  58.3442400
  61.3939820  46.7324980  59.6193570  61.0968110  46.1270450  58.9401350
  62.3439640  46.7702290  59.5082930  67.5263470  43.3199790  52.1842630
  67.9656750  42.4822220  52.0380450  68.2391890  43.9529190  52.2706770
  65.6358850  48.2595860  56.1523870  66.0754760  49.0020190  55.7379260
  65.5745740  48.5022430  57.0762830  57.6262750  41.9402400  54.9561010
  57.5060350  42.6664490  54.3442280  57.3163640  41.1705310  54.4788920
  56.5095750  46.8117730  57.1735830  56.1023830  46.9532320  56.3189430
  57.4008760  46.5277890  56.9707040  68.3029030  51.2464980  53.5086880
  68.1430170  50.9567920  54.4068710  68.1375740  50.4705110  52.9732110
  60.7817410  51.0263510  55.2858500  60.6059890  50.1099050  55.0726300
  59.9273150  51.3850800  55.5256300  68.0055160  48.7552540  52.0684880
  67.3120320  48.7529830  51.4087160  68.7478020  48.3311860  51.6379050
  67.5705090  50.3815250  56.1433370  68.0262040  49.6004630  56.4571990
  67.9097610  51.0922070  56.6874550  60.0926410  35.2837470  58.3384680
  59.6494560  36.0647010  58.0069200  60.6511400  35.6067360  59.0455620
  63.2085230  34.9048170  53.2190510  62.5839410  34.9008040  53.9443820
  63.1215350  34.0379130  52.8226480  62.1302310  35.8284800  60.1974280
  62.4274640  36.7347630  60.1166300  62.6787870  35.3403580  59.5833850
  59.8840630  40.4071040  56.0665930  59.6581550  40.1908210  56.9712550
  59.1033160  40.8399500  55.7211900  67.1138390  40.4134410  54.6656580
  66.5147280  41.1370210  54.4820200  67.6618000  40.3511190  53.8833030
  65.7203260  39.0497950  56.6959860  66.1132830  39.3670150  55.8828550
  66.0820110  38.1709830  56.8104380  54.7567430  35.6398750  58.9190060
  54.4680480  36.2101610  59.6315040  55.5013190  35.1603200  59.2821290
  54.9437660  39.5818870  50.1292780  54.8612330  40.5249630  50.2707770
  54.5920720  39.4393780  49.2505130  62.7435790  38.3157900  59.1963130
  62.7471850  37.8747850  58.3467670  63.6386910  38.6375230  59.3034950
  58.5938170  38.1984390  58.1557340  58.2538220  38.6759620  58.9124390
  57.8315490  37.7449510  57.7958440  62.8055940  39.3169980  52.1869890
  62.9268760  39.2756460  53.1355710  62.4204450  40.1794130  52.0316620
  61.8177440  41.6271120  51.5853190  61.2494340  41.1789370  50.9589100
  62.5266440  41.9863900  51.0518340  55.9084250  37.1203370  57.0722010
  55.6231170  36.7559040  57.9100630  55.8463110  36.3883830  56.4585150
  59.3624920  45.6229310  53.8579600  58.5887180  45.0826930  53.6978320
  60.0919550  45.1035920  53.5197360  65.5822840  36.0132630  53.7935380
  64.7687450  35.5145800  53.7180690  65.3884790  36.8530880  53.3771730
  68.2971230  40.3852280  52.0897540  69.1850850  40.6969510  51.9148880
  68.2676320  39.5124530  51.6978120  59.4062320  45.2909690  57.4958410
  59.9240990  44.4877950  57.4415300  58.9546340  45.2288830  58.3375240
  64.2931820  46.5575970  52.7685710  64.6347520  47.3018200  52.2729030
  63.4644530  46.8707090  53.1310540  67.1759230  45.8791810  58.1331220
  67.5283050  45.2819940  57.4732590  66.2921560  45.5536040  58.3039470
  63.2622510  46.6389500  55.5401630  63.9493640  47.1858710  55.9209220
  62.4754930  47.1830230  55.5751240  55.4014910  42.2562320  51.0318710
  56.2709760  42.5387120  51.3154630  54.9105230  43.0698190  50.9167520
  62.5649720  43.6435530  55.1526990  63.0212500  44.4540780  55.3787180
  62.2137930  43.3258670  55.9845480  58.4661500  33.9873180  55.6249510
  58.3376130  33.9791080  56.5734430  57.6423520  34.3256270  55.2740520
  69.9870130  47.4422840  50.8235880  69.7607710  46.7253280  51.4160520
  69.5966330  47.1935280  49.9857630  55.7686160  51.4689700  51.5980340
  56.1283800  52.0679040  50.9437610  55.6278500  52.0149590  52.3715370
  61.7854780  48.8520900  52.4154010  61.7764880  49.5850590  51.7998520
  60.8653140  48.6052480  52.5080970  57.3861420  44.0735790  53.1600770
  56.7789370  44.8134690  53.1696070  57.8610770  44.1635150  52.3338970
  64.7714380  48.9149140  51.0779200  64.8726360  48.7113130  50.1481180
  63.8716120  48.6607420  51.2826980  62.2940270  39.4729500  55.0603100
  61.5856420  39.9415840  55.5016710  62.5784750  38.8151510  55.6948290
  66.3255700  36.1980160  56.4998890  66.2023480  36.2166290  55.5508400
  67.2740260  36.2459100  56.6197290  63.4132490  51.4335460  55.7726870
  63.6673990  51.3956850  54.8506240  62.4644970  51.3068790  55.7655120
  60.4975290  37.7814580  52.4353810  61.3465820  38.2184730  52.3694000
  60.1306560  38.0934840  53.2625870  69.4185070  42.3527340  57.3485380
  68.4775210  42.3677570  57.5233070  69.7329140  41.5663300  57.7945680
  59.3966710  44.0346940  50.9089340  60.1629980  43.9228300  51.4714770
  59.4741400  43.3384910  50.2566110  58.0913470  41.4672010  51.5922230
  58.1717060  40.5199520  51.7039630  58.9833220  41.7978890  51.6982890
  58.8928180  51.6167400  58.6956770  59.6290660  51.0682860  58.9665340
  59.2769100  52.4823410  58.5562760  55.7773660  47.6840970  54.5698280
  54.8513440  47.9262110  54.5603690  56.2430090  48.5115230  54.4483030
  62.0030490  50.7897710  50.5182340  62.7959100  51.0786540  50.0664130
  61.4834840  50.3589880  49.8394820  62.5207890  46.0101120  50.3824690
  62.4158530  45.3953470  51.1086070  62.3532110  45.4867010  49.5987700
  65.7610620  45.0721150  50.9866680  65.2120720  45.5190450  51.6309420
  66.3829880  44.5670400  51.5104350  61.4285740  44.0312070  52.8831980
  61.8502160  43.8651940  53.7263370  61.5536580  43.2212300  52.3887120
  63.9413380  43.0549680  50.1309080  64.4619040  42.3398700  49.7650230
  64.5881780  43.6935550  50.4309590  60.3244640  40.1045300  49.8290140
  60.1233700  39.2412660  50.1903480  60.1536690  40.0178660  48.8911740
  67.8032950  34.9153530  52.3577020  68.0835240  34.0721430  52.7136440
  67.0298680  35.1476640  52.8715770  59.1227440  37.2045920  49.8168020
  59.4253340  37.2113350  48.9087170  59.8622030  36.8543780  50.3135680
  62.3412370  36.1480540  50.8024220  61.9934370  35.4704530  50.2226670
  62.5425140  35.6870050  51.6167610  64.5061410  51.1361290  52.4210820
  65.4012200  51.4746260  52.4429580  64.5379040  50.4140700  51.7935100
  58.1457570  46.5088340  50.6497820  58.5832440  47.0518010  51.3055400
  58.6305300  45.6835290  50.6594160  55.3603370  49.2977370  58.1018080
  55.6906380  48.4298430  57.8696720  55.7894370  49.5035890  58.9323040
  59.9565290  47.6286380  55.7620050  59.6560830  47.5051350  56.6623960
  59.8502780  46.7694970  55.3535780  55.6818010  42.6768190  57.1988590
  55.0266850  42.4079830  56.5548290  56.5195960  42.5672670  56.7490570
  68.6308450  37.4709480  51.4207080  69.0493330  37.2840460  50.5803740
  68.3244510  36.6188530  51.7310010  54.8956090  39.8867120  53.1413920
  53.9920170  40.1497320  52.9665580  55.3796710  40.1578290  52.3613880
  57.4383300  38.9432660  51.0508300  58.1475000  38.5215880  50.5655580
  56.7223240  39.0107890  50.4191650  57.0857460  34.9971990  50.0910950
  57.8085590  35.5380930  50.4092170  57.3581980  34.7235410  49.2152490
  61.2091380  50.1019080  59.7567310  61.7256400  49.4906440  59.2315570
  61.8588760  50.6047860  60.2478320  55.8876280  51.2048470  56.1814660
  55.7198320  50.5719150  56.8796550  55.0210790  51.4107870  55.8308850
  56.5104300  35.0365250  53.6846520  57.2683660  35.1494130  53.1110550
  56.0481470  35.8734450  53.6389950  63.0518110  37.1504520  56.6748830
  62.2392620  36.7761410  56.3344710  63.5559750  36.3949600  56.9770020
  67.5543090  33.8146970  57.9131900  68.1572460  34.3867180  58.3880420
  66.8136080  34.3786410  57.6905800  57.4938980  49.8981700  53.6264800
  56.9686600  50.2789730  52.9226760  57.4183560  50.5232470  54.3474510
  58.8829450  35.5629300  52.2248490  59.4122210  34.7759100  52.0956440
  59.5157770  36.2420490  52.4584020  61.0767290  35.3004440  55.2793880
  60.4470030  34.5991750  55.4464010  60.5372430  36.0608570  55.0627040
  60.0931950  51.8464080  52.5014050  60.8250770  51.5623360  51.9537940
  60.3525620  51.6077360  53.3913430  59.2546740  47.9628810  52.5060380
  58.6255620  48.4313910  53.0546210  59.3694570  47.1178030  52.9406570
  66.7096460  42.0134470  38.6561580  66.6290510  41.0989080  38.3853290
  66.2960880  42.5101540  37.9501290  64.8414500  43.7913490  40.5370850
  64.0656600  43.3113930  40.8269420  65.4927430  43.1119140  40.3627010
  58.8580330  44.1033300  41.4146610  58.0265210  43.8482010  41.8143120
  59.4661310  44.1744070  42.1504530  68.8621930  48.1973680  39.3169980
  68.4003460  47.4260920  39.6457150  69.6747480  48.2239750  39.8222430
  58.8381590  48.1373390  41.6104630  59.1409630  47.2471130  41.4314850
  59.5825180  48.6943610  41.3826880  55.2305290  41.6640840  41.0828700
  55.8021400  40.8963040  41.0832340  55.2306830  41.9629600  40.1735310
  65.0885240  50.4831690  38.9373970  64.4696680  50.9389190  38.3668410
  65.9437020  50.6383150  38.5363670  64.2823490  46.4670680  40.5441010
  64.2131770  45.5260620  40.3830140  65.0443350  46.5572090  41.1163580
  56.4730160  37.0725200  42.8697630  56.2933000  36.1750950  43.1500390
  56.0710240  37.6197070  43.5444580  65.3128660  39.2741060  40.7709940
  65.6893480  38.4012940  40.6583610  65.2148170  39.6099760  39.8800380
  59.4433670  37.6466690  36.2327380  59.5500420  38.5470420  36.5396140
  58.5326030  37.5984660  35.9422030  69.0952780  36.7691500  37.7038280
  69.9162400  36.2788070  37.7463760  69.1286860  37.3589160  38.4570120
  57.0916830  39.5685700  41.4779970  57.7726940  39.8324070  42.0967370
  56.7764880  38.7286570  41.8117980  61.2841400  40.6153060  40.5652560
  61.7919620  41.1134030  41.2057580  61.8154640  39.8388260  40.3891920
  59.5677500  35.2551620  44.8315980  59.5695940  35.7724010  44.0261880
  58.7381810  34.7781800  44.8085910  65.9548590  45.3670930  36.3305880
  65.3365860  45.8320380  35.7668600  66.4671840  46.0598410  36.7475390
  60.8180350  44.8946800  43.0089480  60.4849730  45.5215720  43.6510550
  60.9947030  45.4208680  42.2291150  69.3314260  38.7091880  40.4765820
  68.6269830  38.9976770  41.0568930  69.6926420  39.5191990  40.1165380
  59.2492830  36.9661580  42.8386430  59.5909640  37.8103630  42.5440300
  58.3108640  37.1145320  42.9551770  60.0299450  46.8627600  44.8238660
  60.6473450  47.5378680  44.5423110  59.1692570  47.2715580  44.7326160
  55.3231790  46.0527460  33.7045510  54.9459770  46.5414560  32.9730410
  55.5804860  46.7252740  34.3352040  62.9320720  34.4543850  39.1631020
  63.2395700  33.8990740  38.4466520  62.0021420  34.5888310  38.9804010
  68.4835780  50.1711140  41.4538480  68.4962940  49.7673430  40.5860740
  67.9311000  50.9458430  41.3499910  69.7781200  46.8927360  36.5428650
  69.6677530  45.9501690  36.6678070  69.7749450  47.2543000  37.4291410
  67.8821220  45.0740980  42.7821090  68.2990010  44.8601090  41.9474550
  68.6061040  45.3313770  43.3529710  65.3201480  42.5192680  35.8991140
  64.3930760  42.4530060  36.1279610  65.4726300  43.4572810  35.7846380
  65.3070560  38.7909680  32.8958300  64.3674230  38.9523640  32.9810760
  65.6253820  39.5095360  32.3494290  69.3498770  44.0812980  36.4026390
  68.7311190  43.7432530  35.7552690  69.3323220  43.4372740  37.1105580
  68.7925330  40.2597520  43.8192200  68.3796510  41.0851230  44.0732190
  68.0601280  39.6742560  43.6268560  60.9258120  43.0457420  38.6810870
  60.5215120  42.3334670  38.1856770  61.0121240  42.7010660  39.5698910
  61.3939820  46.7324980  40.8450080  61.0968110  46.1270450  40.1657860
  62.3439640  46.7702290  40.7339440  59.6386740  39.8200630  42.4609910
  60.1901330  39.9295970  41.6863160  60.1530250  40.1938230  43.1765140
  69.4825430  50.3056850  44.5073180  69.0055990  51.1129040  44.3145790
  68.7987220  49.6535180  44.6599390  60.4858250  46.4706670  47.4957880
  59.5886780  46.6946640  47.7431280  60.5111120  46.5941610  46.5469280
  67.5263470  43.3199790  33.4099140  67.9656750  42.4822220  33.2636960
  68.2391890  43.9529190  33.4963280  59.3129470  43.3419990  46.0715250
  59.1737240  44.2142790  46.4402650  58.4310830  42.9992800  45.9263190
  65.6358850  48.2595860  37.3780380  66.0754760  49.0020190  36.9635770
  65.5745740  48.5022430  38.3019340  61.1109820  49.2841690  48.2800400
  61.0825250  49.6884640  47.4128830  60.9474790  48.3552050  48.1172000
  57.6262750  41.9402400  36.1817520  57.5060350  42.6664490  35.5698790
  57.3163640  41.1705310  35.7045430  55.2648120  45.1117540  41.9886160
  55.3428540  45.2466310  41.0441880  55.8789800  44.4033430  42.1814280
  56.5095750  46.8117730  38.3992340  56.1023830  46.9532320  37.5445940
  57.4008760  46.5277890  38.1963550  66.3274630  50.9609640  45.3059390
  66.8419300  50.8717650  46.1081820  65.4843710  51.3069340  45.5987300
  68.3029030  51.2464980  34.7343390  68.1430170  50.9567920  35.6325220
  68.1375740  50.4705110  34.1988620  60.7817410  51.0263510  36.5115010
  60.6059890  50.1099050  36.2982810  59.9273150  51.3850800  36.7512810
  68.0055160  48.7552540  33.2941390  67.3120320  48.7529830  32.6343670
  68.7478020  48.3311860  32.8635560  67.5705090  50.3815250  37.3689880
  68.0262040  49.6004630  37.6828500  67.9097610  51.0922070  37.9131060
  55.3207640  46.1531710  44.5280620  55.4838680  45.6837070  43.7099990
  55.7860090  45.6455270  45.1929460  60.0926410  35.2837470  39.5641190
  59.6494560  36.0647010  39.2325710  60.6511400  35.6067360  40.2712130
  64.3796220  38.1505990  45.1676510  63.9175590  38.3589010  45.9796450
  63.9774330  37.3365340  44.8647180  69.3800730  39.3714940  46.2973170
  68.5294320  39.0720690  46.6182240  69.2202520  39.6156950  45.3856990
  66.4750440  40.8716690  48.3971960  66.8003850  40.0380440  48.0574190
  67.2630770  41.3945210  48.5450290  63.2085230  34.9048170  34.4447020
  62.5839410  34.9008040  35.1700330  63.1215350  34.0379130  34.0482990
  62.1302310  35.8284800  41.4230790  62.4274640  36.7347630  41.3422810
  62.6787870  35.3403580  40.8090360  59.8840630  40.4071040  37.2922440
  59.6581550  40.1908210  38.1969060  59.1033160  40.8399500  36.9468410
  67.1138390  40.4134410  35.8913090  66.5147280  41.1370210  35.7076710
  67.6618000  40.3511190  35.1089540  62.3239840  41.3056620  47.9582710
  62.2283440  40.3651350  47.8083110  63.1671820  41.5271690  47.5630780
  65.7203260  39.0497950  37.9216370  66.1132830  39.3670150  37.1085060
  66.0820110  38.1709830  38.0360890  57.4550380  37.7170290  46.1116490
  57.0613770  38.5645500  46.3189270  56.7668780  37.0796660  46.3025130
  64.0295430  37.8005260  49.1813230  63.3393750  37.6077460  49.8159320
  64.7727730  38.0839900  49.7137530  54.9437660  39.5818870  31.3549290
  54.8612330  40.5249630  31.4964280  54.5920720  39.4393780  30.4761640
  66.3058400  41.6403700  42.0167150  65.5739520  42.1490510  42.3657250
  65.9082740  40.8233680  41.7155930  62.7435790  38.3157900  40.4219640
  62.7471850  37.8747850  39.5724180  63.6386910  38.6375230  40.5291460
  58.5938170  38.1984390  39.3813850  58.2538220  38.6759620  40.1380900
  57.8315490  37.7449510  39.0214950  62.8055940  39.3169980  33.4126400
  62.9268760  39.2756460  34.3612220  62.4204450  40.1794130  33.2573130
  66.7684310  37.0937380  41.4290090  66.7857050  37.5446030  42.2731940
  66.5199890  36.1943020  41.6423530  61.8177440  41.6271120  32.8109700
  61.2494340  41.1789370  32.1845610  62.5266440  41.9863900  32.2774850
  56.8946620  45.5283140  46.6876430  56.5101410  44.8876810  47.2859390
  57.2058810  46.2319260  47.2571160  63.0443760  42.3759680  42.1685050
  63.4113890  41.9018250  42.9146390  62.8548820  43.2501250  42.5093390
  60.8343130  41.4168320  44.4869260  60.5300200  42.2960300  44.7119620
  61.7889590  41.4768110  44.5226700  59.3624920  45.6229310  35.0836110
  58.5887180  45.0826930  34.9234830  60.0919550  45.1035920  34.7453870
  65.5822840  36.0132630  35.0191890  64.7687450  35.5145800  34.9437200
  65.3884790  36.8530880  34.6028240  65.5031700  44.6903730  46.7631500
  65.4369010  43.7699400  46.5089090  64.8736840  44.7879170  47.4776140
  68.2971230  40.3852280  33.3154050  69.1850850  40.6969510  33.1405390
  68.2676320  39.5124530  32.9234630  59.4062320  45.2909690  38.7214920
  59.9240990  44.4877950  38.6671810  58.9546340  45.2288830  39.5631750
  64.2931820  46.5575970  33.9942220  64.6347520  47.3018200  33.4985540
  63.4644530  46.8707090  34.3567050  56.8906860  42.2571060  45.6340620
  56.5321800  42.9224910  46.2213960  56.5961420  41.4254610  46.0053240
  60.0919980  42.7155300  48.5180170  59.7920120  42.8612480  47.6207990
  60.8631220  42.1560590  48.4253560  65.4348430  47.5124300  46.5135300
  65.4492970  46.5805260  46.2954210  64.7273530  47.5984060  47.1525070
  67.1759230  45.8791810  39.3587730  67.5283050  45.2819940  38.6989100
  66.2921560  45.5536040  39.5295980  63.2622510  46.6389500  36.7658140
  63.9493640  47.1858710  37.1465730  62.4754930  47.1830230  36.8007750
  55.4014910  42.2562320  32.2575220  56.2709760  42.5387120  32.5411140
  54.9105230  43.0698190  32.1424030  62.5649720  43.6435530  36.3783500
  63.0212500  44.4540780  36.6043690  62.2137930  43.3258670  37.2101990
  64.8682330  49.1541870  43.6075800  65.5124550  49.3601250  44.2849220
  65.2311770  48.3930270  43.1546650  66.1414410  47.1574220  42.3253250
  66.7836640  46.4567380  42.4385420  66.6663760  47.9372660  42.1450140
  69.9870130  47.4422840  32.0492390  69.7607710  46.7253280  32.6417030
  69.5966330  47.1935280  31.2114140  67.9152030  47.9569120  45.5289310
  68.2508270  48.5435810  46.2067230  66.9952370  47.8261830  45.7587100
  55.7686160  51.4689700  32.8236850  56.1283800  52.0679040  32.1694120
  55.6278500  52.0149590  33.5971880  55.4655430  35.7464300  46.3112720
  54.7513950  35.9461220  46.9165330  55.8850470  34.9703870  46.6827520
  55.7528020  49.7344560  47.2979250  55.8619140  48.7939300  47.1574640
  55.1008580  49.9999310  46.6492980  63.7440610  48.0060450  48.6977370
  63.4237480  47.2869690  49.2423060  63.0698970  48.6815520  48.7713430
  61.7854780  48.8520900  33.6410520  61.7764880  49.5850590  33.0255030
  60.8653140  48.6052480  33.7337480  57.3861420  44.0735790  34.3857280
  56.7789370  44.8134690  34.3952580  57.8610770  44.1635150  33.5595480
  66.9594210  38.2386610  44.0614170  67.3275030  37.4181820  44.3893740
  66.0992410  38.2988500  44.4769820  64.7714380  48.9149140  32.3035710
  64.8726360  48.7113130  31.3737690  63.8716120  48.6607420  32.5083490
  62.2940270  39.4729500  36.2859610  61.5856420  39.9415840  36.7273220
  62.5784750  38.8151510  36.9204800  63.9196200  40.8926200  44.2852140
  64.4181450  41.3672020  44.9503990  64.0619150  39.9689720  44.4922170
  66.3255700  36.1980160  37.7255400  66.2023480  36.2166290  36.7764910
  67.2740260  36.2459100  37.8453800  63.4132490  51.4335460  36.9983380
  63.6673990  51.3956850  36.0762750  62.4644970  51.3068790  36.9911630
  60.4975290  37.7814580  33.6610320  61.3465820  38.2184730  33.5950510
  60.1306560  38.0934840  34.4882380  69.4185070  42.3527340  38.5741890
  68.4775210  42.3677570  38.7489580  69.7329140  41.5663300  39.0202190
  59.3966710  44.0346940  32.1345850  60.1629980  43.9228300  32.6971280
  59.4741400  43.3384910  31.4822620  58.0913470  41.4672010  32.8178740
  58.1717060  40.5199520  32.9296140  58.9833220  41.7978890  32.9239400
  58.8928180  51.6167400  39.9213280  59.6290660  51.0682860  40.1921850
  59.2769100  52.4823410  39.7819270  55.7773660  47.6840970  35.7954790
  54.8513440  47.9262110  35.7860200  56.2430090  48.5115230  35.6739540
  57.8986460  50.8013470  49.1098860  58.6999190  51.1225520  49.5234260
  57.3838280  50.4409050  49.8318770  62.0030490  50.7897710  31.7438850
  62.7959100  51.0786540  31.2920640  61.4834840  50.3589880  31.0651330
  66.7351090  46.9093340  49.0574270  66.1289250  46.9324940  48.3170020
  66.4305200  46.1776380  49.5941520  68.1651460  50.6373630  47.6683680
  69.1173210  50.5531650  47.6183920  68.0179680  51.3015340  48.3417470
  55.6184270  43.2886930  48.0534910  56.1223290  42.7094210  48.6251140
  54.8791690  43.5727160  48.5911280  62.5207890  46.0101120  31.6081200
  62.4158530  45.3953470  32.3342580  62.3532110  45.4867010  30.8244210
  62.6722210  44.6957920  47.5870430  61.9067880  45.2642920  47.5025100
  62.8538170  44.4034130  46.6938660  65.7610620  45.0721150  32.2123190
  65.2120720  45.5190450  32.8565930  66.3829880  44.5670400  32.7360860
  57.6507350  41.4316520  48.9484980  57.6912690  41.1330390  49.8570210
  58.5052850  41.8324130  48.7892500  61.4285740  44.0312070  34.1088490
  61.8502160  43.8651940  34.9519880  61.5536580  43.2212300  33.6143630
  59.5913160  40.0108620  46.9159470  59.0609620  39.5199570  46.2882810
  60.2601230  40.4392820  46.3817400  63.9413380  43.0549680  31.3565590
  64.4619040  42.3398700  30.9906740  64.5881780  43.6935550  31.6566100
  68.4891220  44.4778080  46.6800660  68.9032240  44.6323160  47.5291080
  67.5542220  44.6033300  46.8426440  68.9613390  41.8174240  48.6839810
  69.5434160  41.0626560  48.5960290  69.1375160  42.3481680  47.9071290
  60.0785460  36.9770990  46.9956760  59.9842330  36.3591740  46.2707630
  59.4982850  37.7037280  46.7686670  62.8446900  35.5344230  44.0284150
  62.3964200  35.5568490  43.1829700  62.2112100  35.1363250  44.6254450
  63.2506450  44.4298560  44.6496590  63.6694560  45.2731290  44.4772830
  62.3315080  44.5670600  44.4203370  65.5870350  42.1614740  46.0334430
  65.7066560  41.5655880  46.7729270  66.4464350  42.1984430  45.6135730
  67.9258250  42.7151930  44.6096940  67.3993470  43.2394550  44.0062080
  68.2689590  43.3479320  45.2406670  60.3244640  40.1045300  31.0546650
  60.1233700  39.2412660  31.4159990  60.1536690  40.0178660  30.1168250
  61.1013870  50.7351570  45.7654320  60.5634960  51.4597630  45.4463020
  61.3547830  50.2581910  44.9751660  62.3539120  38.7036090  47.2910250
  62.9438810  38.3951940  47.9788070  61.5359360  38.2315840  47.4470150
  67.1732550  38.3201900  47.5243270  66.4848070  37.6583440  47.4593260
  67.8938570  37.8740170  47.9691730  67.8032950  34.9153530  33.5833530
  68.0835240  34.0721430  33.9392950  67.0298680  35.1476640  34.0972280
  63.9576080  51.9702780  46.0240970  63.8834780  52.8737920  46.3313340
  63.0554920  51.6514680  45.9963040  62.3412370  36.1480540  32.0280730
  61.9934370  35.4704530  31.4483180  62.5425140  35.6870050  32.8424120
  64.5061410  51.1361290  33.6467330  65.4012200  51.4746260  33.6686090
  64.5379040  50.4140700  33.0191610  58.1457570  46.5088340  31.8754330
  58.5832440  47.0518010  32.5311910  58.6305300  45.6835290  31.8850670
  55.3603370  49.2977370  39.3274590  55.6906380  48.4298430  39.0953230
  55.7894370  49.5035890  40.1579550  59.9565290  47.6286380  36.9876560
  59.6560830  47.5051350  37.8880470  59.8502780  46.7694970  36.5792290
  55.8493580  50.1647960  42.0656220  55.4124570  50.3448760  42.8980370
  56.4171260  50.9222580  41.9237940  55.6818010  42.6768190  38.4245100
  55.0266850  42.4079830  37.7804800  56.5195960  42.5672670  37.9747080
  68.6308450  37.4709480  32.6463590  69.0493330  37.2840460  31.8060250
  68.3244510  36.6188530  32.9566520  56.7193940  43.0620760  42.9648440
  57.0866980  42.9748160  43.8444460  56.1504760  42.2987310  42.8655300
  56.2709940  39.9729850  46.8706860  55.3765990  39.9396610  47.2100570
  56.8107490  40.1716640  47.6358110  57.4383300  38.9432660  32.2764810
  58.1475000  38.5215880  31.7912090  56.7223240  39.0107890  31.6448160
  58.1346020  47.5753450  48.1268590  58.0915650  47.2046360  49.0083050
  58.2657030  48.5131020  48.2670410  61.8352050  49.1313040  43.7278310
  61.5943410  49.3987600  42.8408830  62.7754690  49.3018770  43.7829170
  64.0406470  35.5945730  47.4834820  63.9795360  36.1867560  48.2330230
  64.9806850  35.4871690  47.3385080  66.6781030  35.2515790  47.1227110
  67.2921440  35.5695080  46.4608190  67.2230590  34.7664380  47.7422970
  57.2002290  33.9310050  47.2366170  57.7485280  33.7498100  46.4732280
  57.2657600  33.1404160  47.7722480  57.9734050  50.5215700  45.2466370
  57.3794370  50.3900400  45.9856410  57.9657890  49.6853840  44.7808470
  67.4189070  33.8147930  43.4496400  66.5448910  34.1483040  43.2469330
  67.3099820  33.3421110  44.2748270  68.3261050  36.0218800  44.8338120
  67.9974410  35.2070560  44.4539850  69.2743350  35.9788610  44.7103810
  57.6046280  47.8874080  44.1974410  56.8780340  47.2679370  44.1300360
  57.6655430  48.2814690  43.3272490  61.2091380  50.1019080  40.9823820
  61.7256400  49.4906440  40.4572080  61.8588760  50.6047860  41.4734830
  63.9486880  50.9927570  41.8092800  64.2364690  50.7381870  40.9325810
  64.4610100  50.4404930  42.3998370  65.1663890  34.7317770  42.3889310
  64.3835680  35.2063270  42.6686070  64.8726820  33.8272600  42.2802490
  55.8876280  51.2048470  37.4071170  55.7198320  50.5719150  38.1053060
  55.0210790  51.4107870  37.0565360  63.0518110  37.1504520  37.9005340
  62.2392620  36.7761410  37.5601220  63.5559750  36.3949600  38.2026530
  67.5543090  33.8146970  39.1388410  68.1572460  34.3867180  39.6136930
  66.8136080  34.3786410  38.9162310  57.4938980  49.8981700  34.8521310
  56.9686600  50.2789730  34.1483270  57.4183560  50.5232470  35.5731020
  61.0767290  35.3004440  36.5050390  60.4470030  34.5991750  36.6720520
  60.5372430  36.0608570  36.2883550  64.0159240  51.9143670  49.1761000
  64.9426550  51.6787940  49.2196960  64.0009670  52.7415670  48.6947030
  61.2022850  34.5788420  48.9402880  60.9207120  35.0822020  48.1763700
  61.5842550  33.7810170  48.5745010  60.0931950  51.8464080  33.7270560
  60.8250770  51.5623360  33.1794450  60.3525620  51.6077360  34.6169940
  59.2546740  47.9628810  33.7316890  58.6255620  48.4313910  34.2802720
  59.3694570  47.1178030  34.1663080  67.8038310  33.9942000  49.5183350
  67.6903760  34.3136610  50.4134870  68.6208050  34.3954510  49.2220630
  66.7096460  42.0134470  19.8818090  66.6290510  41.0989080  19.6109800
  66.2960880  42.5101540  19.1757800  64.8414500  43.7913490  21.7627360
  64.0656600  43.3113930  22.0525930  65.4927430  43.1119140  21.5883520
  58.8580330  44.1033300  22.6403120  58.0265210  43.8482010  23.0399630
  59.4661310  44.1744070  23.3761040  68.8621930  48.1973680  20.5426490
  68.4003460  47.4260920  20.8713660  69.6747480  48.2239750  21.0478940
  58.8381590  48.1373390  22.8361140  59.1409630  47.2471130  22.6571360
  59.5825180  48.6943610  22.6083390  57.2672280  39.0635190  16.4245510
  56.3788980  39.4051160  16.3225390  57.5513470  38.8635510  15.5326340
  55.2305290  41.6640840  22.3085210  55.8021400  40.8963040  22.3088850
  55.2306830  41.9629600  21.3991820  65.0885240  50.4831690  20.1630480
  64.4696680  50.9389190  19.5924920  65.9437020  50.6383150  19.7620180
  64.2823490  46.4670680  21.7697520  64.2131770  45.5260620  21.6086650
  65.0443350  46.5572090  22.3420090  56.4730160  37.0725200  24.0954140
  56.2933000  36.1750950  24.3756900  56.0710240  37.6197070  24.7701090
  65.3128660  39.2741060  21.9966450  65.6893480  38.4012940  21.8840120
  65.2148170  39.6099760  21.1056890  59.4433670  37.6466690  17.4583890
  59.5500420  38.5470420  17.7652650  58.5326030  37.5984660  17.1678540
  69.0952780  36.7691500  18.9294790  69.9162400  36.2788070  18.9720270
  69.1286860  37.3589160  19.6826630  57.0916830  39.5685700  22.7036480
  57.7726940  39.8324070  23.3223880  56.7764880  38.7286570  23.0374490
  61.2841400  40.6153060  21.7909070  61.7919620  41.1134030  22.4314090
  61.8154640  39.8388260  21.6148430  59.5677500  35.2551620  26.0572490
  59.5695940  35.7724010  25.2518390  58.7381810  34.7781800  26.0342420
  65.9548590  45.3670930  17.5562390  65.3365860  45.8320380  16.9925110
  66.4671840  46.0598410  17.9731900  60.8180350  44.8946800  24.2345990
  60.4849730  45.5215720  24.8767060  60.9947030  45.4208680  23.4547660
  69.3314260  38.7091880  21.7022330  68.6269830  38.9976770  22.2825440
  69.6926420  39.5191990  21.3421890  59.2492830  36.9661580  24.0642940
  59.5909640  37.8103630  23.7696810  58.3108640  37.1145320  24.1808280
  60.0299450  46.8627600  26.0495170  60.6473450  47.5378680  25.7679620
  59.1692570  47.2715580  25.9582670  55.3231790  46.0527460  14.9302020
  54.9459770  46.5414560  14.1986920  55.5804860  46.7252740  15.5608550
  62.9320720  34.4543850  20.3887530  63.2395700  33.8990740  19.6723030
  62.0021420  34.5888310  20.2060520  68.4835780  50.1711140  22.6794990
  68.4962940  49.7673430  21.8117250  67.9311000  50.9458430  22.5756420
  69.7781200  46.8927360  17.7685160  69.6677530  45.9501690  17.8934580
  69.7749450  47.2543000  18.6547920  67.8821220  45.0740980  24.0077600
  68.2990010  44.8601090  23.1731060  68.6061040  45.3313770  24.5786220
  65.3201480  42.5192680  17.1247650  64.3930760  42.4530060  17.3536120
  65.4726300  43.4572810  17.0102890  65.3070560  38.7909680  14.1214810
  64.3674230  38.9523640  14.2067270  65.6253820  39.5095360  13.5750800
  69.3498770  44.0812980  17.6282900  68.7311190  43.7432530  16.9809200
  69.3323220  43.4372740  18.3362090  68.7925330  40.2597520  25.0448710
  68.3796510  41.0851230  25.2988700  68.0601280  39.6742560  24.8525070
  60.9258120  43.0457420  19.9067380  60.5215120  42.3334670  19.4113280
  61.0121240  42.7010660  20.7955420  61.3939820  46.7324980  22.0706590
  61.0968110  46.1270450  21.3914370  62.3439640  46.7702290  21.9595950
  59.6386740  39.8200630  23.6866420  60.1901330  39.9295970  22.9119670
  60.1530250  40.1938230  24.4021650  69.4825430  50.3056850  25.7329690
  69.0055990  51.1129040  25.5402300  68.7987220  49.6535180  25.8855900
  60.4858250  46.4706670  28.7214390  59.5886780  46.6946640  28.9687790
  60.5111120  46.5941610  27.7725790  67.5263470  43.3199790  14.6355650
  67.9656750  42.4822220  14.4893470  68.2391890  43.9529190  14.7219790
  59.3129470  43.3419990  27.2971760  59.1737240  44.2142790  27.6659160
  58.4310830  42.9992800  27.1519700  65.6358850  48.2595860  18.6036890
  66.0754760  49.0020190  18.1892280  65.5745740  48.5022430  19.5275850
  61.1109820  49.2841690  29.5056910  61.0825250  49.6884640  28.6385340
  60.9474790  48.3552050  29.3428510  57.6262750  41.9402400  17.4074030
  57.5060350  42.6664490  16.7955300  57.3163640  41.1705310  16.9301940
  55.2648120  45.1117540  23.2142670  55.3428540  45.2466310  22.2698390
  55.8789800  44.4033430  23.4070790  56.5095750  46.8117730  19.6248850
  56.1023830  46.9532320  18.7702450  57.4008760  46.5277890  19.4220060
  66.3274630  50.9609640  26.5315900  66.8419300  50.8717650  27.3338330
  65.4843710  51.3069340  26.8243810  68.3029030  51.2464980  15.9599900
  68.1430170  50.9567920  16.8581730  68.1375740  50.4705110  15.4245130
  60.7817410  51.0263510  17.7371520  60.6059890  50.1099050  17.5239320
  59.9273150  51.3850800  17.9769320  68.0055160  48.7552540  14.5197900
  67.3120320  48.7529830  13.8600180  68.7478020  48.3311860  14.0892070
  67.5705090  50.3815250  18.5946390  68.0262040  49.6004630  18.9085010
  67.9097610  51.0922070  19.1387570  55.3207640  46.1531710  25.7537130
  55.4838680  45.6837070  24.9356500  55.7860090  45.6455270  26.4185970
  60.0926410  35.2837470  20.7897700  59.6494560  36.0647010  20.4582220
  60.6511400  35.6067360  21.4968640  64.3796220  38.1505990  26.3933020
  63.9175590  38.3589010  27.2052960  63.9774330  37.3365340  26.0903690
  69.3800730  39.3714940  27.5229680  68.5294320  39.0720690  27.8438750
  69.2202520  39.6156950  26.6113500  66.4750440  40.8716690  29.6228470
  66.8003850  40.0380440  29.2830700  67.2630770  41.3945210  29.7706800
  63.2085230  34.9048170  15.6703530  62.5839410  34.9008040  16.3956840
  63.1215350  34.0379130  15.2739500  62.1302310  35.8284800  22.6487300
  62.4274640  36.7347630  22.5679320  62.6787870  35.3403580  22.0346870
  59.8840630  40.4071040  18.5178950  59.6581550  40.1908210  19.4225570
  59.1033160  40.8399500  18.1724920  67.1138390  40.4134410  17.1169600
  66.5147280  41.1370210  16.9333220  67.6618000  40.3511190  16.3346050
  62.3239840  41.3056620  29.1839220  62.2283440  40.3651350  29.0339620
  63.1671820  41.5271690  28.7887290  65.7203260  39.0497950  19.1472880
  66.1132830  39.3670150  18.3341570  66.0820110  38.1709830  19.2617400
  57.4550380  37.7170290  27.3373000  57.0613770  38.5645500  27.5445780
  56.7668780  37.0796660  27.5281640  64.0295430  37.8005260  30.4069740
  63.3393750  37.6077460  31.0415830  64.7727730  38.0839900  30.9394040
  54.7567430  35.6398750  21.3703080  54.4680480  36.2101610  22.0828060
  55.5013190  35.1603200  21.7334310  54.9437660  39.5818870  12.5805800
  54.8612330  40.5249630  12.7220790  54.5920720  39.4393780  11.7018150
  66.3058400  41.6403700  23.2423660  65.5739520  42.1490510  23.5913760
  65.9082740  40.8233680  22.9412440  62.7435790  38.3157900  21.6476150
  62.7471850  37.8747850  20.7980690  63.6386910  38.6375230  21.7547970
  58.5938170  38.1984390  20.6070360  58.2538220  38.6759620  21.3637410
  57.8315490  37.7449510  20.2471460  62.8055940  39.3169980  14.6382910
  62.9268760  39.2756460  15.5868730  62.4204450  40.1794130  14.4829640
  66.7684310  37.0937380  22.6546600  66.7857050  37.5446030  23.4988450
  66.5199890  36.1943020  22.8680040  61.8177440  41.6271120  14.0366210
  61.2494340  41.1789370  13.4102120  62.5266440  41.9863900  13.5031360
  56.8946620  45.5283140  27.9132940  56.5101410  44.8876810  28.5115900
  57.2058810  46.2319260  28.4827670  63.0443760  42.3759680  23.3941560
  63.4113890  41.9018250  24.1402900  62.8548820  43.2501250  23.7349900
  55.9084250  37.1203370  19.5235030  55.6231170  36.7559040  20.3613650
  55.8463110  36.3883830  18.9098170  60.8343130  41.4168320  25.7125770
  60.5300200  42.2960300  25.9376130  61.7889590  41.4768110  25.7483210
  59.3624920  45.6229310  16.3092620  58.5887180  45.0826930  16.1491340
  60.0919550  45.1035920  15.9710380  65.5822840  36.0132630  16.2448400
  64.7687450  35.5145800  16.1693710  65.3884790  36.8530880  15.8284750
  65.5031700  44.6903730  27.9888010  65.4369010  43.7699400  27.7345600
  64.8736840  44.7879170  28.7032650  68.2971230  40.3852280  14.5410560
  69.1850850  40.6969510  14.3661900  68.2676320  39.5124530  14.1491140
  59.4062320  45.2909690  19.9471430  59.9240990  44.4877950  19.8928320
  58.9546340  45.2288830  20.7888260  64.2931820  46.5575970  15.2198730
  64.6347520  47.3018200  14.7242050  63.4644530  46.8707090  15.5823560
  56.8906860  42.2571060  26.8597130  56.5321800  42.9224910  27.4470470
  56.5961420  41.4254610  27.2309750  60.0919980  42.7155300  29.7436680
  59.7920120  42.8612480  28.8464500  60.8631220  42.1560590  29.6510070
  65.4348430  47.5124300  27.7391810  65.4492970  46.5805260  27.5210720
  64.7273530  47.5984060  28.3781580  67.1759230  45.8791810  20.5844240
  67.5283050  45.2819940  19.9245610  66.2921560  45.5536040  20.7552490
  63.2622510  46.6389500  17.9914650  63.9493640  47.1858710  18.3722240
  62.4754930  47.1830230  18.0264260  55.4014910  42.2562320  13.4831730
  56.2709760  42.5387120  13.7667650  54.9105230  43.0698190  13.3680540
  62.5649720  43.6435530  17.6040010  63.0212500  44.4540780  17.8300200
  62.2137930  43.3258670  18.4358500  64.8682330  49.1541870  24.8332310
  65.5124550  49.3601250  25.5105730  65.2311770  48.3930270  24.3803160
  58.4661500  33.9873180  18.0762530  58.3376130  33.9791080  19.0247450
  57.6423520  34.3256270  17.7253540  66.1414410  47.1574220  23.5509760
  66.7836640  46.4567380  23.6641930  66.6663760  47.9372660  23.3706650
  69.9870130  47.4422840  13.2748900  69.7607710  46.7253280  13.8673540
  69.5966330  47.1935280  12.4370650  67.9152030  47.9569120  26.7545820
  68.2508270  48.5435810  27.4323740  66.9952370  47.8261830  26.9843610
  55.7686160  51.4689700  14.0493360  56.1283800  52.0679040  13.3950630
  55.6278500  52.0149590  14.8228390  55.4655430  35.7464300  27.5369230
  54.7513950  35.9461220  28.1421840  55.8850470  34.9703870  27.9084030
  55.7528020  49.7344560  28.5235760  55.8619140  48.7939300  28.3831150
  55.1008580  49.9999310  27.8749490  63.7440610  48.0060450  29.9233880
  63.4237480  47.2869690  30.4679570  63.0698970  48.6815520  29.9969940
  61.7854780  48.8520900  14.8667030  61.7764880  49.5850590  14.2511540
  60.8653140  48.6052480  14.9593990  57.3861420  44.0735790  15.6113790
  56.7789370  44.8134690  15.6209090  57.8610770  44.1635150  14.7851990
  66.9594210  38.2386610  25.2870680  67.3275030  37.4181820  25.6150250
  66.0992410  38.2988500  25.7026330  64.7714380  48.9149140  13.5292220
  64.8726360  48.7113130  12.5994200  63.8716120  48.6607420  13.7340000
  62.2940270  39.4729500  17.5116120  61.5856420  39.9415840  17.9529730
  62.5784750  38.8151510  18.1461310  63.9196200  40.8926200  25.5108650
  64.4181450  41.3672020  26.1760500  64.0619150  39.9689720  25.7178680
  66.3255700  36.1980160  18.9511910  66.2023480  36.2166290  18.0021420
  67.2740260  36.2459100  19.0710310  63.4132490  51.4335460  18.2239890
  63.6673990  51.3956850  17.3019260  62.4644970  51.3068790  18.2168140
  60.4975290  37.7814580  14.8866830  61.3465820  38.2184730  14.8207020
  60.1306560  38.0934840  15.7138890  69.4185070  42.3527340  19.7998400
  68.4775210  42.3677570  19.9746090  69.7329140  41.5663300  20.2458700
  59.3966710  44.0346940  13.3602360  60.1629980  43.9228300  13.9227790
  59.4741400  43.3384910  12.7079130  58.0913470  41.4672010  14.0435250
  58.1717060  40.5199520  14.1552650  58.9833220  41.7978890  14.1495910
  58.8928180  51.6167400  21.1469790  59.6290660  51.0682860  21.4178360
  59.2769100  52.4823410  21.0075780  55.7773660  47.6840970  17.0211300
  54.8513440  47.9262110  17.0116710  56.2430090  48.5115230  16.8996050
  57.8986460  50.8013470  30.3355370  58.6999190  51.1225520  30.7490770
  57.3838280  50.4409050  31.0575280  62.0030490  50.7897710  12.9695360
  62.7959100  51.0786540  12.5177150  61.4834840  50.3589880  12.2907840
  66.7351090  46.9093340  30.2830780  66.1289250  46.9324940  29.5426530
  66.4305200  46.1776380  30.8198030  68.1651460  50.6373630  28.8940190
  69.1173210  50.5531650  28.8440430  68.0179680  51.3015340  29.5673980
  55.6184270  43.2886930  29.2791420  56.1223290  42.7094210  29.8507650
  54.8791690  43.5727160  29.8167790  62.5207890  46.0101120  12.8337710
  62.4158530  45.3953470  13.5599090  62.3532110  45.4867010  12.0500720
  62.6722210  44.6957920  28.8126940  61.9067880  45.2642920  28.7281610
  62.8538170  44.4034130  27.9195170  65.7610620  45.0721150  13.4379700
  65.2120720  45.5190450  14.0822440  66.3829880  44.5670400  13.9617370
  57.6507350  41.4316520  30.1741490  57.6912690  41.1330390  31.0826720
  58.5052850  41.8324130  30.0149010  61.4285740  44.0312070  15.3345000
  61.8502160  43.8651940  16.1776390  61.5536580  43.2212300  14.8400140
  59.5913160  40.0108620  28.1415980  59.0609620  39.5199570  27.5139320
  60.2601230  40.4392820  27.6073910  63.9413380  43.0549680  12.5822100
  64.4619040  42.3398700  12.2163250  64.5881780  43.6935550  12.8822610
  68.4891220  44.4778080  27.9057170  68.9032240  44.6323160  28.7547590
  67.5542220  44.6033300  28.0682950  68.9613390  41.8174240  29.9096320
  69.5434160  41.0626560  29.8216800  69.1375160  42.3481680  29.1327800
  60.0785460  36.9770990  28.2213270  59.9842330  36.3591740  27.4964140
  59.4982850  37.7037280  27.9943180  62.8446900  35.5344230  25.2540660
  62.3964200  35.5568490  24.4086210  62.2112100  35.1363250  25.8510960
  63.2506450  44.4298560  25.8753100  63.6694560  45.2731290  25.7029340
  62.3315080  44.5670600  25.6459880  65.5870350  42.1614740  27.2590940
  65.7066560  41.5655880  27.9985780  66.4464350  42.1984430  26.8392240
  67.9258250  42.7151930  25.8353450  67.3993470  43.2394550  25.2318590
  68.2689590  43.3479320  26.4663180  60.3244640  40.1045300  12.2803160
  60.1233700  39.2412660  12.6416500  60.1536690  40.0178660  11.3424760
  61.1013870  50.7351570  26.9910830  60.5634960  51.4597630  26.6719530
  61.3547830  50.2581910  26.2008170  62.3539120  38.7036090  28.5166760
  62.9438810  38.3951940  29.2044580  61.5359360  38.2315840  28.6726660
  67.1732550  38.3201900  28.7499780  66.4848070  37.6583440  28.6849770
  67.8938570  37.8740170  29.1948240  67.8032950  34.9153530  14.8090040
  68.0835240  34.0721430  15.1649460  67.0298680  35.1476640  15.3228790
  59.1227440  37.2045920  12.2681040  59.4253340  37.2113350  11.3600190
  59.8622030  36.8543780  12.7648700  63.9576080  51.9702780  27.2497480
  63.8834780  52.8737920  27.5569850  63.0554920  51.6514680  27.2219550
  62.3412370  36.1480540  13.2537240  61.9934370  35.4704530  12.6739690
  62.5425140  35.6870050  14.0680630  64.5061410  51.1361290  14.8723840
  65.4012200  51.4746260  14.8942600  64.5379040  50.4140700  14.2448120
  58.1457570  46.5088340  13.1010840  58.5832440  47.0518010  13.7568420
  58.6305300  45.6835290  13.1107180  55.3603370  49.2977370  20.5531100
  55.6906380  48.4298430  20.3209740  55.7894370  49.5035890  21.3836060
  59.9565290  47.6286380  18.2133070  59.6560830  47.5051350  19.1136980
  59.8502780  46.7694970  17.8048800  55.8493580  50.1647960  23.2912730
  55.4124570  50.3448760  24.1236880  56.4171260  50.9222580  23.1494450
  55.6818010  42.6768190  19.6501610  55.0266850  42.4079830  19.0061310
  56.5195960  42.5672670  19.2003590  68.6308450  37.4709480  13.8720100
  69.0493330  37.2840460  13.0316760  68.3244510  36.6188530  14.1823030
  56.7193940  43.0620760  24.1904950  57.0866980  42.9748160  25.0700970
  56.1504760  42.2987310  24.0911810  56.2709940  39.9729850  28.0963370
  55.3765990  39.9396610  28.4357080  56.8107490  40.1716640  28.8614620
  54.8956090  39.8867120  15.5926940  53.9920170  40.1497320  15.4178600
  55.3796710  40.1578290  14.8126900  57.4383300  38.9432660  13.5021320
  58.1475000  38.5215880  13.0168600  56.7223240  39.0107890  12.8704670
  57.0857460  34.9971990  12.5423970  57.8085590  35.5380930  12.8605190
  57.3581980  34.7235410  11.6665510  56.7749650  34.2478180  22.4446590
  57.4225840  33.6975560  22.0041750  57.1951490  34.5021330  23.2662400
  56.5281650  34.4033850  25.1871910  56.1796470  34.8597670  25.9530090
  56.1969350  33.5090980  25.2694340  58.1346020  47.5753450  29.3525100
  58.0915650  47.2046360  30.2339560  58.2657030  48.5131020  29.4926920
  61.8352050  49.1313040  24.9534820  61.5943410  49.3987600  24.0665340
  62.7754690  49.3018770  25.0085680  64.0406470  35.5945730  28.7091330
  63.9795360  36.1867560  29.4586740  64.9806850  35.4871690  28.5641590
  66.6781030  35.2515790  28.3483620  67.2921440  35.5695080  27.6864700
  67.2230590  34.7664380  28.9679480  57.9734050  50.5215700  26.4722880
  57.3794370  50.3900400  27.2112920  57.9657890  49.6853840  26.0064980
  67.4189070  33.8147930  24.6752910  66.5448910  34.1483040  24.4725840
  67.3099820  33.3421110  25.5004780  68.3261050  36.0218800  26.0594630
  67.9974410  35.2070560  25.6796360  69.2743350  35.9788610  25.9360320
  57.6046280  47.8874080  25.4230920  56.8780340  47.2679370  25.3556870
  57.6655430  48.2814690  24.5529000  61.2091380  50.1019080  22.2080330
  61.7256400  49.4906440  21.6828590  61.8588760  50.6047860  22.6991340
  63.9486880  50.9927570  23.0349310  64.2364690  50.7381870  22.1582320
  64.4610100  50.4404930  23.6254880  65.1663890  34.7317770  23.6145820
  64.3835680  35.2063270  23.8942580  64.8726820  33.8272600  23.5059000
  55.8876280  51.2048470  18.6327680  55.7198320  50.5719150  19.3309570
  55.0210790  51.4107870  18.2821870  56.5104300  35.0365250  16.1359540
  57.2683660  35.1494130  15.5623570  56.0481470  35.8734450  16.0902970
  63.0518110  37.1504520  19.1261850  62.2392620  36.7761410  18.7857730
  63.5559750  36.3949600  19.4283040  67.5543090  33.8146970  20.3644920
  68.1572460  34.3867180  20.8393440  66.8136080  34.3786410  20.1418820
  57.4938980  49.8981700  16.0777820  56.9686600  50.2789730  15.3739780
  57.4183560  50.5232470  16.7987530  58.8829450  35.5629300  14.6761510
  59.4122210  34.7759100  14.5469460  59.5157770  36.2420490  14.9097040
  61.0767290  35.3004440  17.7306900  60.4470030  34.5991750  17.8977030
  60.5372430  36.0608570  17.5140060  64.0159240  51.9143670  30.4017510
  64.9426550  51.6787940  30.4453470  64.0009670  52.7415670  29.9203540
  60.0931950  51.8464080  14.9527070  60.8250770  51.5623360  14.4050960
  60.3525620  51.6077360  15.8426450  59.2546740  47.9628810  14.9573400
  58.6255620  48.4313910  15.5059230  59.3694570  47.1178030  15.3919590
  67.8038310  33.9942000  30.7439860  67.6903760  34.3136610  31.6391380
  68.6208050  34.3954510  30.4477140  64.8414500  43.7913490   2.9883870
  64.0656600  43.3113930   3.2782440  65.4927430  43.1119140   2.8140030
  58.8580330  44.1033300   3.8659630  58.0265210  43.8482010   4.2656140
  59.4661310  44.1744070   4.6017550  68.8621930  48.1973680   1.7683000
  68.4003460  47.4260920   2.0970170  69.6747480  48.2239750   2.2735450
  58.8381590  48.1373390   4.0617650  59.1409630  47.2471130   3.8827870
  59.5825180  48.6943610   3.8339900  55.2305290  41.6640840   3.5341720
  55.8021400  40.8963040   3.5345360  55.2306830  41.9629600   2.6248330
  64.2823490  46.4670680   2.9954030  64.2131770  45.5260620   2.8343160
  65.0443350  46.5572090   3.5676600  56.4730160  37.0725200   5.3210650
  56.2933000  36.1750950   5.6013410  56.0710240  37.6197070   5.9957600
  65.3128660  39.2741060   3.2222960  65.6893480  38.4012940   3.1096630
  65.2148170  39.6099760   2.3313400  57.0916830  39.5685700   3.9292990
  57.7726940  39.8324070   4.5480390  56.7764880  38.7286570   4.2631000
  61.2841400  40.6153060   3.0165580  61.7919620  41.1134030   3.6570600
  61.8154640  39.8388260   2.8404940  59.5677500  35.2551620   7.2829000
  59.5695940  35.7724010   6.4774900  58.7381810  34.7781800   7.2598930
  60.8180350  44.8946800   5.4602500  60.4849730  45.5215720   6.1023570
  60.9947030  45.4208680   4.6804170  69.3314260  38.7091880   2.9278840
  68.6269830  38.9976770   3.5081950  69.6926420  39.5191990   2.5678400
  59.2492830  36.9661580   5.2899450  59.5909640  37.8103630   4.9953320
  58.3108640  37.1145320   5.4064790  60.0299450  46.8627600   7.2751680
  60.6473450  47.5378680   6.9936130  59.1692570  47.2715580   7.1839180
  68.4835780  50.1711140   3.9051500  68.4962940  49.7673430   3.0373760
  67.9311000  50.9458430   3.8012930  67.8821220  45.0740980   5.2334110
  68.2990010  44.8601090   4.3987570  68.6061040  45.3313770   5.8042730
  68.7925330  40.2597520   6.2705220  68.3796510  41.0851230   6.5245210
  68.0601280  39.6742560   6.0781580  61.3939820  46.7324980   3.2963100
  61.0968110  46.1270450   2.6170880  62.3439640  46.7702290   3.1852460
  59.6386740  39.8200630   4.9122930  60.1901330  39.9295970   4.1376180
  60.1530250  40.1938230   5.6278160  69.4825430  50.3056850   6.9586200
  69.0055990  51.1129040   6.7658810  68.7987220  49.6535180   7.1112410
  60.4858250  46.4706670   9.9470900  59.5886780  46.6946640  10.1944300
  60.5111120  46.5941610   8.9982300  59.3129470  43.3419990   8.5228270
  59.1737240  44.2142790   8.8915670  58.4310830  42.9992800   8.3776210
  61.1109820  49.2841690  10.7313420  61.0825250  49.6884640   9.8641850
  60.9474790  48.3552050  10.5685020  55.2648120  45.1117540   4.4399180
  55.3428540  45.2466310   3.4954900  55.8789800  44.4033430   4.6327300
  66.3274630  50.9609640   7.7572410  66.8419300  50.8717650   8.5594840
  65.4843710  51.3069340   8.0500320  55.3207640  46.1531710   6.9793640
  55.4838680  45.6837070   6.1613010  55.7860090  45.6455270   7.6442480
  60.0926410  35.2837470   2.0154210  59.6494560  36.0647010   1.6838730
  60.6511400  35.6067360   2.7225150  64.3796220  38.1505990   7.6189530
  63.9175590  38.3589010   8.4309470  63.9774330  37.3365340   7.3160200
  69.3800730  39.3714940   8.7486190  68.5294320  39.0720690   9.0695260
  69.2202520  39.6156950   7.8370010  66.4750440  40.8716690  10.8484980
  66.8003850  40.0380440  10.5087210  67.2630770  41.3945210  10.9963310
  62.1302310  35.8284800   3.8743810  62.4274640  36.7347630   3.7935830
  62.6787870  35.3403580   3.2603380  62.3239840  41.3056620  10.4095730
  62.2283440  40.3651350  10.2596130  63.1671820  41.5271690  10.0143800
  57.4550380  37.7170290   8.5629510  57.0613770  38.5645500   8.7702290
  56.7668780  37.0796660   8.7538150  64.0295430  37.8005260  11.6326250
  63.3393750  37.6077460  12.2672340  64.7727730  38.0839900  12.1650550
  54.7567430  35.6398750   2.5959590  54.4680480  36.2101610   3.3084570
  55.5013190  35.1603200   2.9590820  66.3058400  41.6403700   4.4680170
  65.5739520  42.1490510   4.8170270  65.9082740  40.8233680   4.1668950
  62.7435790  38.3157900   2.8732660  62.7471850  37.8747850   2.0237200
  63.6386910  38.6375230   2.9804480  58.5938170  38.1984390   1.8326870
  58.2538220  38.6759620   2.5893920  57.8315490  37.7449510   1.4727970
  66.7684310  37.0937380   3.8803110  66.7857050  37.5446030   4.7244960
  66.5199890  36.1943020   4.0936550  56.8946620  45.5283140   9.1389450
  56.5101410  44.8876810   9.7372410  57.2058810  46.2319260   9.7084180
  63.0443760  42.3759680   4.6198070  63.4113890  41.9018250   5.3659410
  62.8548820  43.2501250   4.9606410  60.8343130  41.4168320   6.9382280
  60.5300200  42.2960300   7.1632640  61.7889590  41.4768110   6.9739720
  65.5031700  44.6903730   9.2144520  65.4369010  43.7699400   8.9602110
  64.8736840  44.7879170   9.9289160  56.8906860  42.2571060   8.0853640
  56.5321800  42.9224910   8.6726980  56.5961420  41.4254610   8.4566260
  60.0919980  42.7155300  10.9693190  59.7920120  42.8612480  10.0721010
  60.8631220  42.1560590  10.8766580  65.4348430  47.5124300   8.9648320
  65.4492970  46.5805260   8.7467230  64.7273530  47.5984060   9.6038090
  64.8682330  49.1541870   6.0588820  65.5124550  49.3601250   6.7362240
  65.2311770  48.3930270   5.6059670  66.1414410  47.1574220   4.7766270
  66.7836640  46.4567380   4.8898440  66.6663760  47.9372660   4.5963160
  67.9152030  47.9569120   7.9802330  68.2508270  48.5435810   8.6580250
  66.9952370  47.8261830   8.2100120  55.4655430  35.7464300   8.7625740
  54.7513950  35.9461220   9.3678350  55.8850470  34.9703870   9.1340540
  55.7528020  49.7344560   9.7492270  55.8619140  48.7939300   9.6087660
  55.1008580  49.9999310   9.1006000  63.7440610  48.0060450  11.1490390
  63.4237480  47.2869690  11.6936080  63.0698970  48.6815520  11.2226450
  66.9594210  38.2386610   6.5127190  67.3275030  37.4181820   6.8406760
  66.0992410  38.2988500   6.9282840  63.9196200  40.8926200   6.7365160
  64.4181450  41.3672020   7.4017010  64.0619150  39.9689720   6.9435190
  58.8928180  51.6167400   2.3726300  59.6290660  51.0682860   2.6434870
  59.2769100  52.4823410   2.2332290  57.8986460  50.8013470  11.5611880
  58.6999190  51.1225520  11.9747280  57.3838280  50.4409050  12.2831790
  66.7351090  46.9093340  11.5087290  66.1289250  46.9324940  10.7683040
  66.4305200  46.1776380  12.0454540  68.1651460  50.6373630  10.1196700
  69.1173210  50.5531650  10.0696940  68.0179680  51.3015340  10.7930490
  55.6184270  43.2886930  10.5047930  56.1223290  42.7094210  11.0764160
  54.8791690  43.5727160  11.0424300  62.6722210  44.6957920  10.0383450
  61.9067880  45.2642920   9.9538120  62.8538170  44.4034130   9.1451680
  57.6507350  41.4316520  11.3998000  57.6912690  41.1330390  12.3083230
  58.5052850  41.8324130  11.2405520  59.5913160  40.0108620   9.3672490
  59.0609620  39.5199570   8.7395830  60.2601230  40.4392820   8.8330420
  68.4891220  44.4778080   9.1313680  68.9032240  44.6323160   9.9804100
  67.5542220  44.6033300   9.2939460  68.9613390  41.8174240  11.1352830
  69.5434160  41.0626560  11.0473310  69.1375160  42.3481680  10.3584310
  60.0785460  36.9770990   9.4469780  59.9842330  36.3591740   8.7220650
  59.4982850  37.7037280   9.2199690  62.8446900  35.5344230   6.4797170
  62.3964200  35.5568490   5.6342720  62.2112100  35.1363250   7.0767470
  63.2506450  44.4298560   7.1009610  63.6694560  45.2731290   6.9285850
  62.3315080  44.5670600   6.8716390  65.5870350  42.1614740   8.4847450
  65.7066560  41.5655880   9.2242290  66.4464350  42.1984430   8.0648750
  67.9258250  42.7151930   7.0609960  67.3993470  43.2394550   6.4575100
  68.2689590  43.3479320   7.6919690  61.1013870  50.7351570   8.2167340
  60.5634960  51.4597630   7.8976040  61.3547830  50.2581910   7.4264680
  62.3539120  38.7036090   9.7423270  62.9438810  38.3951940  10.4301090
  61.5359360  38.2315840   9.8983170  67.1732550  38.3201900   9.9756290
  66.4848070  37.6583440   9.9106280  67.8938570  37.8740170  10.4204750
  63.9576080  51.9702780   8.4753990  63.8834780  52.8737920   8.7826360
  63.0554920  51.6514680   8.4476060  55.3603370  49.2977370   1.7787610
  55.6906380  48.4298430   1.5466250  55.7894370  49.5035890   2.6092570
  55.8493580  50.1647960   4.5169240  55.4124570  50.3448760   5.3493390
  56.4171260  50.9222580   4.3750960  56.7193940  43.0620760   5.4161460
  57.0866980  42.9748160   6.2957480  56.1504760  42.2987310   5.3168320
  56.2709940  39.9729850   9.3219880  55.3765990  39.9396610   9.6613590
  56.8107490  40.1716640  10.0871130  56.7749650  34.2478180   3.6703100
  57.4225840  33.6975560   3.2298260  57.1951490  34.5021330   4.4918910
  56.5281650  34.4033850   6.4128420  56.1796470  34.8597670   7.1786600
  56.1969350  33.5090980   6.4950850  58.1346020  47.5753450  10.5781610
  58.0915650  47.2046360  11.4596070  58.2657030  48.5131020  10.7183430
  61.8352050  49.1313040   6.1791330  61.5943410  49.3987600   5.2921850
  62.7754690  49.3018770   6.2342190  64.0406470  35.5945730   9.9347840
  63.9795360  36.1867560  10.6843250  64.9806850  35.4871690   9.7898100
  66.6781030  35.2515790   9.5740130  67.2921440  35.5695080   8.9121210
  67.2230590  34.7664380  10.1935990  57.2002290  33.9310050   9.6879190
  57.7485280  33.7498100   8.9245300  57.2657600  33.1404160  10.2235500
  57.9734050  50.5215700   7.6979390  57.3794370  50.3900400   8.4369430
  57.9657890  49.6853840   7.2321490  67.4189070  33.8147930   5.9009420
  66.5448910  34.1483040   5.6982350  67.3099820  33.3421110   6.7261290
  68.3261050  36.0218800   7.2851140  67.9974410  35.2070560   6.9052870
  69.2743350  35.9788610   7.1616830  57.6046280  47.8874080   6.6487430
  56.8780340  47.2679370   6.5813380  57.6655430  48.2814690   5.7785510
  61.2091380  50.1019080   3.4336840  61.7256400  49.4906440   2.9085100
  61.8588760  50.6047860   3.9247850  63.9486880  50.9927570   4.2605820
  64.2364690  50.7381870   3.3838830  64.4610100  50.4404930   4.8511390
  65.1663890  34.7317770   4.8402330  64.3835680  35.2063270   5.1199090
  64.8726820  33.8272600   4.7315510  64.0159240  51.9143670  11.6274020
  64.9426550  51.6787940  11.6709980  64.0009670  52.7415670  11.1460050
  61.2022850  34.5788420  11.3915900  60.9207120  35.0822020  10.6276720
  61.5842550  33.7810170  11.0258030  67.8038310  33.9942000  11.9696370
  67.6903760  34.3136610  12.8647890  68.6208050  34.3954510  11.6733650
  66.7096460  23.2390980  57.4305070  66.6290510  22.3245590  57.1596780
  66.2960880  23.7358050  56.7244780  64.8414500  25.0170000  59.3114340
  64.0656600  24.5370440  59.6012910  65.4927430  24.3375650  59.1370500
  68.8621930  29.4230190  58.0913470  68.4003460  28.6517430  58.4200640
  69.6747480  29.4496260  58.5965920  57.2672280  20.2891700  53.9732490
  56.3788980  20.6307670  53.8712370  57.5513470  20.0892020  53.0813320
  55.2305290  22.8897350  59.8572190  55.8021400  22.1219550  59.8575830
  55.2306830  23.1886110  58.9478800  65.0885240  31.7088200  57.7117460
  64.4696680  32.1645700  57.1411900  65.9437020  31.8639660  57.3107160
  64.2823490  27.6927190  59.3184500  64.2131770  26.7517130  59.1573630
  65.0443350  27.7828600  59.8907070  65.3128660  20.4997570  59.5453430
  65.6893480  19.6269450  59.4327100  65.2148170  20.8356270  58.6543870
  59.4433670  18.8723200  55.0070870  59.5500420  19.7726930  55.3139630
  58.5326030  18.8241170  54.7165520  69.0952780  17.9948010  56.4781770
  69.9162400  17.5044580  56.5207250  69.1286860  18.5845670  57.2313610
  61.2841400  21.8409570  59.3396050  61.7919620  22.3390540  59.9801070
  61.8154640  21.0644770  59.1635410  65.9548590  26.5927440  55.1049370
  65.3365860  27.0576890  54.5412090  66.4671840  27.2854920  55.5218880
  69.3314260  19.9348390  59.2509310  68.6269830  20.2233280  59.8312420
  69.6926420  20.7448500  58.8908870  55.3231790  27.2783970  52.4789000
  54.9459770  27.7671070  51.7473900  55.5804860  27.9509250  53.1095530
  62.9320720  15.6800360  57.9374510  63.2395700  15.1247250  57.2210010
  62.0021420  15.8144820  57.7547500  68.4835780  31.3967650  60.2281970
  68.4962940  30.9929940  59.3604230  67.9311000  32.1714940  60.1243400
  69.7781200  28.1183870  55.3172140  69.6677530  27.1758200  55.4421560
  69.7749450  28.4799510  56.2034900  65.3201480  23.7449190  54.6734630
  64.3930760  23.6786570  54.9023100  65.4726300  24.6829320  54.5589870
  65.3070560  20.0166190  51.6701790  64.3674230  20.1780150  51.7554250
  65.6253820  20.7351870  51.1237780  69.3498770  25.3069490  55.1769880
  68.7311190  24.9689040  54.5296180  69.3323220  24.6629250  55.8849070
  60.9258120  24.2713930  57.4554360  60.5215120  23.5591180  56.9600260
  61.0121240  23.9267170  58.3442400  61.3939820  27.9581490  59.6193570
  61.0968110  27.3526960  58.9401350  62.3439640  27.9958800  59.5082930
  67.5263470  24.5456300  52.1842630  67.9656750  23.7078730  52.0380450
  68.2391890  25.1785700  52.2706770  65.6358850  29.4852370  56.1523870
  66.0754760  30.2276700  55.7379260  65.5745740  29.7278940  57.0762830
  57.6262750  23.1658910  54.9561010  57.5060350  23.8921000  54.3442280
  57.3163640  22.3961820  54.4788920  56.5095750  28.0374240  57.1735830
  56.1023830  28.1788830  56.3189430  57.4008760  27.7534400  56.9707040
  68.3029030  32.4721490  53.5086880  68.1430170  32.1824430  54.4068710
  68.1375740  31.6961620  52.9732110  60.7817410  32.2520020  55.2858500
  60.6059890  31.3355560  55.0726300  59.9273150  32.6107310  55.5256300
  68.0055160  29.9809050  52.0684880  67.3120320  29.9786340  51.4087160
  68.7478020  29.5568370  51.6379050  67.5705090  31.6071760  56.1433370
  68.0262040  30.8261140  56.4571990  67.9097610  32.3178580  56.6874550
  60.0926410  16.5093980  58.3384680  59.6494560  17.2903520  58.0069200
  60.6511400  16.8323870  59.0455620  63.2085230  16.1304680  53.2190510
  62.5839410  16.1264550  53.9443820  63.1215350  15.2635640  52.8226480
  62.1302310  17.0541310  60.1974280  62.4274640  17.9604140  60.1166300
  62.6787870  16.5660090  59.5833850  59.8840630  21.6327550  56.0665930
  59.6581550  21.4164720  56.9712550  59.1033160  22.0656010  55.7211900
  67.1138390  21.6390920  54.6656580  66.5147280  22.3626720  54.4820200
  67.6618000  21.5767700  53.8833030  65.7203260  20.2754460  56.6959860
  66.1132830  20.5926660  55.8828550  66.0820110  19.3966340  56.8104380
  54.7567430  16.8655260  58.9190060  54.4680480  17.4358120  59.6315040
  55.5013190  16.3859710  59.2821290  54.9437660  20.8075380  50.1292780
  54.8612330  21.7506140  50.2707770  54.5920720  20.6650290  49.2505130
  62.7435790  19.5414410  59.1963130  62.7471850  19.1004360  58.3467670
  63.6386910  19.8631740  59.3034950  58.5938170  19.4240900  58.1557340
  58.2538220  19.9016130  58.9124390  57.8315490  18.9706020  57.7958440
  62.8055940  20.5426490  52.1869890  62.9268760  20.5012970  53.1355710
  62.4204450  21.4050640  52.0316620  61.8177440  22.8527630  51.5853190
  61.2494340  22.4045880  50.9589100  62.5266440  23.2120410  51.0518340
  55.9084250  18.3459880  57.0722010  55.6231170  17.9815550  57.9100630
  55.8463110  17.6140340  56.4585150  59.3624920  26.8485820  53.8579600
  58.5887180  26.3083440  53.6978320  60.0919550  26.3292430  53.5197360
  65.5822840  17.2389140  53.7935380  64.7687450  16.7402310  53.7180690
  65.3884790  18.0787390  53.3771730  68.2971230  21.6108790  52.0897540
  69.1850850  21.9226020  51.9148880  68.2676320  20.7381040  51.6978120
  59.4062320  26.5166200  57.4958410  59.9240990  25.7134460  57.4415300
  58.9546340  26.4545340  58.3375240  64.2931820  27.7832480  52.7685710
  64.6347520  28.5274710  52.2729030  63.4644530  28.0963600  53.1310540
  67.1759230  27.1048320  58.1331220  67.5283050  26.5076450  57.4732590
  66.2921560  26.7792550  58.3039470  63.2622510  27.8646010  55.5401630
  63.9493640  28.4115220  55.9209220  62.4754930  28.4086740  55.5751240
  55.4014910  23.4818830  51.0318710  56.2709760  23.7643630  51.3154630
  54.9105230  24.2954700  50.9167520  62.5649720  24.8692040  55.1526990
  63.0212500  25.6797290  55.3787180  62.2137930  24.5515180  55.9845480
  58.4661500  15.2129690  55.6249510  58.3376130  15.2047590  56.5734430
  57.6423520  15.5512780  55.2740520  69.9870130  28.6679350  50.8235880
  69.7607710  27.9509790  51.4160520  69.5966330  28.4191790  49.9857630
  55.7686160  32.6946210  51.5980340  56.1283800  33.2935550  50.9437610
  55.6278500  33.2406100  52.3715370  61.7854780  30.0777410  52.4154010
  61.7764880  30.8107100  51.7998520  60.8653140  29.8308990  52.5080970
  57.3861420  25.2992300  53.1600770  56.7789370  26.0391200  53.1696070
  57.8610770  25.3891660  52.3338970  64.7714380  30.1405650  51.0779200
  64.8726360  29.9369640  50.1481180  63.8716120  29.8863930  51.2826980
  62.2940270  20.6986010  55.0603100  61.5856420  21.1672350  55.5016710
  62.5784750  20.0408020  55.6948290  66.3255700  17.4236670  56.4998890
  66.2023480  17.4422800  55.5508400  67.2740260  17.4715610  56.6197290
  63.4132490  32.6591970  55.7726870  63.6673990  32.6213360  54.8506240
  62.4644970  32.5325300  55.7655120  60.4975290  19.0071090  52.4353810
  61.3465820  19.4441240  52.3694000  60.1306560  19.3191350  53.2625870
  69.4185070  23.5783850  57.3485380  68.4775210  23.5934080  57.5233070
  69.7329140  22.7919810  57.7945680  59.3966710  25.2603450  50.9089340
  60.1629980  25.1484810  51.4714770  59.4741400  24.5641420  50.2566110
  58.0913470  22.6928520  51.5922230  58.1717060  21.7456030  51.7039630
  58.9833220  23.0235400  51.6982890  58.8928180  32.8423910  58.6956770
  59.6290660  32.2939370  58.9665340  59.2769100  33.7079920  58.5562760
  55.7773660  28.9097480  54.5698280  54.8513440  29.1518620  54.5603690
  56.2430090  29.7371740  54.4483030  62.0030490  32.0154220  50.5182340
  62.7959100  32.3043050  50.0664130  61.4834840  31.5846390  49.8394820
  62.5207890  27.2357630  50.3824690  62.4158530  26.6209980  51.1086070
  62.3532110  26.7123520  49.5987700  65.7610620  26.2977660  50.9866680
  65.2120720  26.7446960  51.6309420  66.3829880  25.7926910  51.5104350
  61.4285740  25.2568580  52.8831980  61.8502160  25.0908450  53.7263370
  61.5536580  24.4468810  52.3887120  63.9413380  24.2806190  50.1309080
  64.4619040  23.5655210  49.7650230  64.5881780  24.9192060  50.4309590
  60.3244640  21.3301810  49.8290140  60.1233700  20.4669170  50.1903480
  60.1536690  21.2435170  48.8911740  67.8032950  16.1410040  52.3577020
  68.0835240  15.2977940  52.7136440  67.0298680  16.3733150  52.8715770
  59.1227440  18.4302430  49.8168020  59.4253340  18.4369860  48.9087170
  59.8622030  18.0800290  50.3135680  62.3412370  17.3737050  50.8024220
  61.9934370  16.6961040  50.2226670  62.5425140  16.9126560  51.6167610
  64.5061410  32.3617800  52.4210820  65.4012200  32.7002770  52.4429580
  64.5379040  31.6397210  51.7935100  58.1457570  27.7344850  50.6497820
  58.5832440  28.2774520  51.3055400  58.6305300  26.9091800  50.6594160
  55.3603370  30.5233880  58.1018080  55.6906380  29.6554940  57.8696720
  55.7894370  30.7292400  58.9323040  59.9565290  28.8542890  55.7620050
  59.6560830  28.7307860  56.6623960  59.8502780  27.9951480  55.3535780
  55.6818010  23.9024700  57.1988590  55.0266850  23.6336340  56.5548290
  56.5195960  23.7929180  56.7490570  68.6308450  18.6965990  51.4207080
  69.0493330  18.5096970  50.5803740  68.3244510  17.8445040  51.7310010
  54.8956090  21.1123630  53.1413920  53.9920170  21.3753830  52.9665580
  55.3796710  21.3834800  52.3613880  57.4383300  20.1689170  51.0508300
  58.1475000  19.7472390  50.5655580  56.7223240  20.2364400  50.4191650
  57.0857460  16.2228500  50.0910950  57.8085590  16.7637440  50.4092170
  57.3581980  15.9491920  49.2152490  61.2091380  31.3275590  59.7567310
  61.7256400  30.7162950  59.2315570  61.8588760  31.8304370  60.2478320
  55.8876280  32.4304980  56.1814660  55.7198320  31.7975660  56.8796550
  55.0210790  32.6364380  55.8308850  56.5104300  16.2621760  53.6846520
  57.2683660  16.3750640  53.1110550  56.0481470  17.0990960  53.6389950
  63.0518110  18.3761030  56.6748830  62.2392620  18.0017920  56.3344710
  63.5559750  17.6206110  56.9770020  67.5543090  15.0403480  57.9131900
  68.1572460  15.6123690  58.3880420  66.8136080  15.6042920  57.6905800
  57.4938980  31.1238210  53.6264800  56.9686600  31.5046240  52.9226760
  57.4183560  31.7488980  54.3474510  58.8829450  16.7885810  52.2248490
  59.4122210  16.0015610  52.0956440  59.5157770  17.4677000  52.4584020
  61.0767290  16.5260950  55.2793880  60.4470030  15.8248260  55.4464010
  60.5372430  17.2865080  55.0627040  60.0931950  33.0720590  52.5014050
  60.8250770  32.7879870  51.9537940  60.3525620  32.8333870  53.3913430
  59.2546740  29.1885320  52.5060380  58.6255620  29.6570420  53.0546210
  59.3694570  28.3434540  52.9406570  66.7096460  23.2390980  38.6561580
  66.6290510  22.3245590  38.3853290  66.2960880  23.7358050  37.9501290
  64.8414500  25.0170000  40.5370850  64.0656600  24.5370440  40.8269420
  65.4927430  24.3375650  40.3627010  58.8580330  25.3289810  41.4146610
  58.0265210  25.0738520  41.8143120  59.4661310  25.4000580  42.1504530
  68.8621930  29.4230190  39.3169980  68.4003460  28.6517430  39.6457150
  69.6747480  29.4496260  39.8222430  58.8381590  29.3629900  41.6104630
  59.1409630  28.4727640  41.4314850  59.5825180  29.9200120  41.3826880
  57.2672280  20.2891700  35.1989000  56.3788980  20.6307670  35.0968880
  57.5513470  20.0892020  34.3069830  55.2305290  22.8897350  41.0828700
  55.8021400  22.1219550  41.0832340  55.2306830  23.1886110  40.1735310
  65.0885240  31.7088200  38.9373970  64.4696680  32.1645700  38.3668410
  65.9437020  31.8639660  38.5363670  64.2823490  27.6927190  40.5441010
  64.2131770  26.7517130  40.3830140  65.0443350  27.7828600  41.1163580
  56.4730160  18.2981710  42.8697630  56.2933000  17.4007460  43.1500390
  56.0710240  18.8453580  43.5444580  65.3128660  20.4997570  40.7709940
  65.6893480  19.6269450  40.6583610  65.2148170  20.8356270  39.8800380
  59.4433670  18.8723200  36.2327380  59.5500420  19.7726930  36.5396140
  58.5326030  18.8241170  35.9422030  69.0952780  17.9948010  37.7038280
  69.9162400  17.5044580  37.7463760  69.1286860  18.5845670  38.4570120
  57.0916830  20.7942210  41.4779970  57.7726940  21.0580580  42.0967370
  56.7764880  19.9543080  41.8117980  61.2841400  21.8409570  40.5652560
  61.7919620  22.3390540  41.2057580  61.8154640  21.0644770  40.3891920
  59.5677500  16.4808130  44.8315980  59.5695940  16.9980520  44.0261880
  58.7381810  16.0038310  44.8085910  65.9548590  26.5927440  36.3305880
  65.3365860  27.0576890  35.7668600  66.4671840  27.2854920  36.7475390
  60.8180350  26.1203310  43.0089480  60.4849730  26.7472230  43.6510550
  60.9947030  26.6465190  42.2291150  69.3314260  19.9348390  40.4765820
  68.6269830  20.2233280  41.0568930  69.6926420  20.7448500  40.1165380
  59.2492830  18.1918090  42.8386430  59.5909640  19.0360140  42.5440300
  58.3108640  18.3401830  42.9551770  60.0299450  28.0884110  44.8238660
  60.6473450  28.7635190  44.5423110  59.1692570  28.4972090  44.7326160
  62.9320720  15.6800360  39.1631020  63.2395700  15.1247250  38.4466520
  62.0021420  15.8144820  38.9804010  68.4835780  31.3967650  41.4538480
  68.4962940  30.9929940  40.5860740  67.9311000  32.1714940  41.3499910
  69.7781200  28.1183870  36.5428650  69.6677530  27.1758200  36.6678070
  69.7749450  28.4799510  37.4291410  67.8821220  26.2997490  42.7821090
  68.2990010  26.0857600  41.9474550  68.6061040  26.5570280  43.3529710
  65.3201480  23.7449190  35.8991140  64.3930760  23.6786570  36.1279610
  65.4726300  24.6829320  35.7846380  65.3070560  20.0166190  32.8958300
  64.3674230  20.1780150  32.9810760  65.6253820  20.7351870  32.3494290
  69.3498770  25.3069490  36.4026390  68.7311190  24.9689040  35.7552690
  69.3323220  24.6629250  37.1105580  68.7925330  21.4854030  43.8192200
  68.3796510  22.3107740  44.0732190  68.0601280  20.8999070  43.6268560
  60.9258120  24.2713930  38.6810870  60.5215120  23.5591180  38.1856770
  61.0121240  23.9267170  39.5698910  61.3939820  27.9581490  40.8450080
  61.0968110  27.3526960  40.1657860  62.3439640  27.9958800  40.7339440
  59.6386740  21.0457140  42.4609910  60.1901330  21.1552480  41.6863160
  60.1530250  21.4194740  43.1765140  69.4825430  31.5313360  44.5073180
  69.0055990  32.3385550  44.3145790  68.7987220  30.8791690  44.6599390
  60.4858250  27.6963180  47.4957880  59.5886780  27.9203150  47.7431280
  60.5111120  27.8198120  46.5469280  67.5263470  24.5456300  33.4099140
  67.9656750  23.7078730  33.2636960  68.2391890  25.1785700  33.4963280
  59.3129470  24.5676500  46.0715250  59.1737240  25.4399300  46.4402650
  58.4310830  24.2249310  45.9263190  65.6358850  29.4852370  37.3780380
  66.0754760  30.2276700  36.9635770  65.5745740  29.7278940  38.3019340
  61.1109820  30.5098200  48.2800400  61.0825250  30.9141150  47.4128830
  60.9474790  29.5808560  48.1172000  57.6262750  23.1658910  36.1817520
  57.5060350  23.8921000  35.5698790  57.3163640  22.3961820  35.7045430
  66.3274630  32.1866150  45.3059390  66.8419300  32.0974160  46.1081820
  65.4843710  32.5325850  45.5987300  68.3029030  32.4721490  34.7343390
  68.1430170  32.1824430  35.6325220  68.1375740  31.6961620  34.1988620
  60.7817410  32.2520020  36.5115010  60.6059890  31.3355560  36.2982810
  59.9273150  32.6107310  36.7512810  68.0055160  29.9809050  33.2941390
  67.3120320  29.9786340  32.6343670  68.7478020  29.5568370  32.8635560
  67.5705090  31.6071760  37.3689880  68.0262040  30.8261140  37.6828500
  67.9097610  32.3178580  37.9131060  60.0926410  16.5093980  39.5641190
  59.6494560  17.2903520  39.2325710  60.6511400  16.8323870  40.2712130
  64.3796220  19.3762500  45.1676510  63.9175590  19.5845520  45.9796450
  63.9774330  18.5621850  44.8647180  69.3800730  20.5971450  46.2973170
  68.5294320  20.2977200  46.6182240  69.2202520  20.8413460  45.3856990
  66.4750440  22.0973200  48.3971960  66.8003850  21.2636950  48.0574190
  67.2630770  22.6201720  48.5450290  63.2085230  16.1304680  34.4447020
  62.5839410  16.1264550  35.1700330  63.1215350  15.2635640  34.0482990
  62.1302310  17.0541310  41.4230790  62.4274640  17.9604140  41.3422810
  62.6787870  16.5660090  40.8090360  59.8840630  21.6327550  37.2922440
  59.6581550  21.4164720  38.1969060  59.1033160  22.0656010  36.9468410
  67.1138390  21.6390920  35.8913090  66.5147280  22.3626720  35.7076710
  67.6618000  21.5767700  35.1089540  62.3239840  22.5313130  47.9582710
  62.2283440  21.5907860  47.8083110  63.1671820  22.7528200  47.5630780
  65.7203260  20.2754460  37.9216370  66.1132830  20.5926660  37.1085060
  66.0820110  19.3966340  38.0360890  57.4550380  18.9426800  46.1116490
  57.0613770  19.7902010  46.3189270  56.7668780  18.3053170  46.3025130
  64.0295430  19.0261770  49.1813230  63.3393750  18.8333970  49.8159320
  64.7727730  19.3096410  49.7137530  54.7567430  16.8655260  40.1446570
  54.4680480  17.4358120  40.8571550  55.5013190  16.3859710  40.5077800
  54.9437660  20.8075380  31.3549290  54.8612330  21.7506140  31.4964280
  54.5920720  20.6650290  30.4761640  66.3058400  22.8660210  42.0167150
  65.5739520  23.3747020  42.3657250  65.9082740  22.0490190  41.7155930
  62.7435790  19.5414410  40.4219640  62.7471850  19.1004360  39.5724180
  63.6386910  19.8631740  40.5291460  58.5938170  19.4240900  39.3813850
  58.2538220  19.9016130  40.1380900  57.8315490  18.9706020  39.0214950
  62.8055940  20.5426490  33.4126400  62.9268760  20.5012970  34.3612220
  62.4204450  21.4050640  33.2573130  66.7684310  18.3193890  41.4290090
  66.7857050  18.7702540  42.2731940  66.5199890  17.4199530  41.6423530
  61.8177440  22.8527630  32.8109700  61.2494340  22.4045880  32.1845610
  62.5266440  23.2120410  32.2774850  56.8946620  26.7539650  46.6876430
  56.5101410  26.1133320  47.2859390  57.2058810  27.4575770  47.2571160
  63.0443760  23.6016190  42.1685050  63.4113890  23.1274760  42.9146390
  62.8548820  24.4757760  42.5093390  55.9084250  18.3459880  38.2978520
  55.6231170  17.9815550  39.1357140  55.8463110  17.6140340  37.6841660
  60.8343130  22.6424830  44.4869260  60.5300200  23.5216810  44.7119620
  61.7889590  22.7024620  44.5226700  65.5822840  17.2389140  35.0191890
  64.7687450  16.7402310  34.9437200  65.3884790  18.0787390  34.6028240
  65.5031700  25.9160240  46.7631500  65.4369010  24.9955910  46.5089090
  64.8736840  26.0135680  47.4776140  68.2971230  21.6108790  33.3154050
  69.1850850  21.9226020  33.1405390  68.2676320  20.7381040  32.9234630
  59.4062320  26.5166200  38.7214920  59.9240990  25.7134460  38.6671810
  58.9546340  26.4545340  39.5631750  64.2931820  27.7832480  33.9942220
  64.6347520  28.5274710  33.4985540  63.4644530  28.0963600  34.3567050
  56.8906860  23.4827570  45.6340620  56.5321800  24.1481420  46.2213960
  56.5961420  22.6511120  46.0053240  60.0919980  23.9411810  48.5180170
  59.7920120  24.0868990  47.6207990  60.8631220  23.3817100  48.4253560
  65.4348430  28.7380810  46.5135300  65.4492970  27.8061770  46.2954210
  64.7273530  28.8240570  47.1525070  67.1759230  27.1048320  39.3587730
  67.5283050  26.5076450  38.6989100  66.2921560  26.7792550  39.5295980
  63.2622510  27.8646010  36.7658140  63.9493640  28.4115220  37.1465730
  62.4754930  28.4086740  36.8007750  62.5649720  24.8692040  36.3783500
  63.0212500  25.6797290  36.6043690  62.2137930  24.5515180  37.2101990
  64.8682330  30.3798380  43.6075800  65.5124550  30.5857760  44.2849220
  65.2311770  29.6186780  43.1546650  58.4661500  15.2129690  36.8506020
  58.3376130  15.2047590  37.7990940  57.6423520  15.5512780  36.4997030
  66.1414410  28.3830730  42.3253250  66.7836640  27.6823890  42.4385420
  66.6663760  29.1629170  42.1450140  69.9870130  28.6679350  32.0492390
  69.7607710  27.9509790  32.6417030  69.5966330  28.4191790  31.2114140
  67.9152030  29.1825630  45.5289310  68.2508270  29.7692320  46.2067230
  66.9952370  29.0518340  45.7587100  55.4655430  16.9720810  46.3112720
  54.7513950  17.1717730  46.9165330  55.8850470  16.1960380  46.6827520
  55.7528020  30.9601070  47.2979250  55.8619140  30.0195810  47.1574640
  55.1008580  31.2255820  46.6492980  63.7440610  29.2316960  48.6977370
  63.4237480  28.5126200  49.2423060  63.0698970  29.9072030  48.7713430
  61.7854780  30.0777410  33.6410520  61.7764880  30.8107100  33.0255030
  60.8653140  29.8308990  33.7337480  66.9594210  19.4643120  44.0614170
  67.3275030  18.6438330  44.3893740  66.0992410  19.5245010  44.4769820
  64.7714380  30.1405650  32.3035710  64.8726360  29.9369640  31.3737690
  63.8716120  29.8863930  32.5083490  62.2940270  20.6986010  36.2859610
  61.5856420  21.1672350  36.7273220  62.5784750  20.0408020  36.9204800
  63.9196200  22.1182710  44.2852140  64.4181450  22.5928530  44.9503990
  64.0619150  21.1946230  44.4922170  66.3255700  17.4236670  37.7255400
  66.2023480  17.4422800  36.7764910  67.2740260  17.4715610  37.8453800
  63.4132490  32.6591970  36.9983380  63.6673990  32.6213360  36.0762750
  62.4644970  32.5325300  36.9911630  60.4975290  19.0071090  33.6610320
  61.3465820  19.4441240  33.5950510  60.1306560  19.3191350  34.4882380
  69.4185070  23.5783850  38.5741890  68.4775210  23.5934080  38.7489580
  69.7329140  22.7919810  39.0202190  59.3966710  25.2603450  32.1345850
  60.1629980  25.1484810  32.6971280  59.4741400  24.5641420  31.4822620
  58.0913470  22.6928520  32.8178740  58.1717060  21.7456030  32.9296140
  58.9833220  23.0235400  32.9239400  57.8986460  32.0269980  49.1098860
  58.6999190  32.3482030  49.5234260  57.3838280  31.6665560  49.8318770
  62.0030490  32.0154220  31.7438850  62.7959100  32.3043050  31.2920640
  61.4834840  31.5846390  31.0651330  66.7351090  28.1349850  49.0574270
  66.1289250  28.1581450  48.3170020  66.4305200  27.4032890  49.5941520
  68.1651460  31.8630140  47.6683680  69.1173210  31.7788160  47.6183920
  68.0179680  32.5271850  48.3417470  55.6184270  24.5143440  48.0534910
  56.1223290  23.9350720  48.6251140  54.8791690  24.7983670  48.5911280
  62.5207890  27.2357630  31.6081200  62.4158530  26.6209980  32.3342580
  62.3532110  26.7123520  30.8244210  62.6722210  25.9214430  47.5870430
  61.9067880  26.4899430  47.5025100  62.8538170  25.6290640  46.6938660
  65.7610620  26.2977660  32.2123190  65.2120720  26.7446960  32.8565930
  66.3829880  25.7926910  32.7360860  57.6507350  22.6573030  48.9484980
  57.6912690  22.3586900  49.8570210  58.5052850  23.0580640  48.7892500
  61.4285740  25.2568580  34.1088490  61.8502160  25.0908450  34.9519880
  61.5536580  24.4468810  33.6143630  59.5913160  21.2365130  46.9159470
  59.0609620  20.7456080  46.2882810  60.2601230  21.6649330  46.3817400
  63.9413380  24.2806190  31.3565590  64.4619040  23.5655210  30.9906740
  64.5881780  24.9192060  31.6566100  68.4891220  25.7034590  46.6800660
  68.9032240  25.8579670  47.5291080  67.5542220  25.8289810  46.8426440
  68.9613390  23.0430750  48.6839810  69.5434160  22.2883070  48.5960290
  69.1375160  23.5738190  47.9071290  60.0785460  18.2027500  46.9956760
  59.9842330  17.5848250  46.2707630  59.4982850  18.9293790  46.7686670
  62.8446900  16.7600740  44.0284150  62.3964200  16.7825000  43.1829700
  62.2112100  16.3619760  44.6254450  63.2506450  25.6555070  44.6496590
  63.6694560  26.4987800  44.4772830  62.3315080  25.7927110  44.4203370
  65.5870350  23.3871250  46.0334430  65.7066560  22.7912390  46.7729270
  66.4464350  23.4240940  45.6135730  67.9258250  23.9408440  44.6096940
  67.3993470  24.4651060  44.0062080  68.2689590  24.5735830  45.2406670
  60.3244640  21.3301810  31.0546650  60.1233700  20.4669170  31.4159990
  60.1536690  21.2435170  30.1168250  61.1013870  31.9608080  45.7654320
  60.5634960  32.6854140  45.4463020  61.3547830  31.4838420  44.9751660
  62.3539120  19.9292600  47.2910250  62.9438810  19.6208450  47.9788070
  61.5359360  19.4572350  47.4470150  67.1732550  19.5458410  47.5243270
  66.4848070  18.8839950  47.4593260  67.8938570  19.0996680  47.9691730
  67.8032950  16.1410040  33.5833530  68.0835240  15.2977940  33.9392950
  67.0298680  16.3733150  34.0972280  59.1227440  18.4302430  31.0424530
  59.4253340  18.4369860  30.1343680  59.8622030  18.0800290  31.5392190
  63.9576080  33.1959290  46.0240970  63.8834780  34.0994430  46.3313340
  63.0554920  32.8771190  45.9963040  62.3412370  17.3737050  32.0280730
  61.9934370  16.6961040  31.4483180  62.5425140  16.9126560  32.8424120
  64.5061410  32.3617800  33.6467330  65.4012200  32.7002770  33.6686090
  64.5379040  31.6397210  33.0191610  59.9565290  28.8542890  36.9876560
  59.6560830  28.7307860  37.8880470  59.8502780  27.9951480  36.5792290
  68.6308450  18.6965990  32.6463590  69.0493330  18.5096970  31.8060250
  68.3244510  17.8445040  32.9566520  56.2709940  21.1986360  46.8706860
  55.3765990  21.1653120  47.2100570  56.8107490  21.3973150  47.6358110
  54.8956090  21.1123630  34.3670430  53.9920170  21.3753830  34.1922090
  55.3796710  21.3834800  33.5870390  57.4383300  20.1689170  32.2764810
  58.1475000  19.7472390  31.7912090  56.7223240  20.2364400  31.6448160
  57.0857460  16.2228500  31.3167460  57.8085590  16.7637440  31.6348680
  57.3581980  15.9491920  30.4409000  56.7749650  15.4734690  41.2190080
  57.4225840  14.9232070  40.7785240  57.1951490  15.7277840  42.0405890
  56.5281650  15.6290360  43.9615400  56.1796470  16.0854180  44.7273580
  56.1969350  14.7347490  44.0437830  58.1346020  28.8009960  48.1268590
  58.0915650  28.4302870  49.0083050  58.2657030  29.7387530  48.2670410
  61.8352050  30.3569550  43.7278310  61.5943410  30.6244110  42.8408830
  62.7754690  30.5275280  43.7829170  64.0406470  16.8202240  47.4834820
  63.9795360  17.4124070  48.2330230  64.9806850  16.7128200  47.3385080
  66.6781030  16.4772300  47.1227110  67.2921440  16.7951590  46.4608190
  67.2230590  15.9920890  47.7422970  57.2002290  15.1566560  47.2366170
  57.7485280  14.9754610  46.4732280  57.2657600  14.3660670  47.7722480
  57.9734050  31.7472210  45.2466370  57.3794370  31.6156910  45.9856410
  57.9657890  30.9110350  44.7808470  67.4189070  15.0404440  43.4496400
  66.5448910  15.3739550  43.2469330  67.3099820  14.5677620  44.2748270
  68.3261050  17.2475310  44.8338120  67.9974410  16.4327070  44.4539850
  69.2743350  17.2045120  44.7103810  57.6046280  29.1130590  44.1974410
  56.8780340  28.4935880  44.1300360  57.6655430  29.5071200  43.3272490
  61.2091380  31.3275590  40.9823820  61.7256400  30.7162950  40.4572080
  61.8588760  31.8304370  41.4734830  63.9486880  32.2184080  41.8092800
  64.2364690  31.9638380  40.9325810  64.4610100  31.6661440  42.3998370
  65.1663890  15.9574280  42.3889310  64.3835680  16.4319780  42.6686070
  64.8726820  15.0529110  42.2802490  56.5104300  16.2621760  34.9103030
  57.2683660  16.3750640  34.3367060  56.0481470  17.0990960  34.8646460
  63.0518110  18.3761030  37.9005340  62.2392620  18.0017920  37.5601220
  63.5559750  17.6206110  38.2026530  67.5543090  15.0403480  39.1388410
  68.1572460  15.6123690  39.6136930  66.8136080  15.6042920  38.9162310
  58.8829450  16.7885810  33.4505000  59.4122210  16.0015610  33.3212950
  59.5157770  17.4677000  33.6840530  61.0767290  16.5260950  36.5050390
  60.4470030  15.8248260  36.6720520  60.5372430  17.2865080  36.2883550
  64.0159240  33.1400180  49.1761000  64.9426550  32.9044450  49.2196960
  64.0009670  33.9672180  48.6947030  61.2022850  15.8044930  48.9402880
  60.9207120  16.3078530  48.1763700  61.5842550  15.0066680  48.5745010
  67.8038310  15.2198510  49.5183350  67.6903760  15.5393120  50.4134870
  68.6208050  15.6211020  49.2220630  66.7096460  23.2390980  19.8818090
  66.6290510  22.3245590  19.6109800  66.2960880  23.7358050  19.1757800
  64.8414500  25.0170000  21.7627360  64.0656600  24.5370440  22.0525930
  65.4927430  24.3375650  21.5883520  58.8580330  25.3289810  22.6403120
  58.0265210  25.0738520  23.0399630  59.4661310  25.4000580  23.3761040
  68.8621930  29.4230190  20.5426490  68.4003460  28.6517430  20.8713660
  69.6747480  29.4496260  21.0478940  58.8381590  29.3629900  22.8361140
  59.1409630  28.4727640  22.6571360  59.5825180  29.9200120  22.6083390
  57.2672280  20.2891700  16.4245510  56.3788980  20.6307670  16.3225390
  57.5513470  20.0892020  15.5326340  55.2305290  22.8897350  22.3085210
  55.8021400  22.1219550  22.3088850  55.2306830  23.1886110  21.3991820
  65.0885240  31.7088200  20.1630480  64.4696680  32.1645700  19.5924920
  65.9437020  31.8639660  19.7620180  64.2823490  27.6927190  21.7697520
  64.2131770  26.7517130  21.6086650  65.0443350  27.7828600  22.3420090
  56.4730160  18.2981710  24.0954140  56.2933000  17.4007460  24.3756900
  56.0710240  18.8453580  24.7701090  65.3128660  20.4997570  21.9966450
  65.6893480  19.6269450  21.8840120  65.2148170  20.8356270  21.1056890
  59.4433670  18.8723200  17.4583890  59.5500420  19.7726930  17.7652650
  58.5326030  18.8241170  17.1678540  69.0952780  17.9948010  18.9294790
  69.9162400  17.5044580  18.9720270  69.1286860  18.5845670  19.6826630
  57.0916830  20.7942210  22.7036480  57.7726940  21.0580580  23.3223880
  56.7764880  19.9543080  23.0374490  61.2841400  21.8409570  21.7909070
  61.7919620  22.3390540  22.4314090  61.8154640  21.0644770  21.6148430
  59.5677500  16.4808130  26.0572490  59.5695940  16.9980520  25.2518390
  58.7381810  16.0038310  26.0342420  65.9548590  26.5927440  17.5562390
  65.3365860  27.0576890  16.9925110  66.4671840  27.2854920  17.9731900
  60.8180350  26.1203310  24.2345990  60.4849730  26.7472230  24.8767060
  60.9947030  26.6465190  23.4547660  69.3314260  19.9348390  21.7022330
  68.6269830  20.2233280  22.2825440  69.6926420  20.7448500  21.3421890
  59.2492830  18.1918090  24.0642940  59.5909640  19.0360140  23.7696810
  58.3108640  18.3401830  24.1808280  60.0299450  28.0884110  26.0495170
  60.6473450  28.7635190  25.7679620  59.1692570  28.4972090  25.9582670
  55.3231790  27.2783970  14.9302020  54.9459770  27.7671070  14.1986920
  55.5804860  27.9509250  15.5608550  62.9320720  15.6800360  20.3887530
  63.2395700  15.1247250  19.6723030  62.0021420  15.8144820  20.2060520
  68.4835780  31.3967650  22.6794990  68.4962940  30.9929940  21.8117250
  67.9311000  32.1714940  22.5756420  69.7781200  28.1183870  17.7685160
  69.6677530  27.1758200  17.8934580  69.7749450  28.4799510  18.6547920
  67.8821220  26.2997490  24.0077600  68.2990010  26.0857600  23.1731060
  68.6061040  26.5570280  24.5786220  65.3201480  23.7449190  17.1247650
  64.3930760  23.6786570  17.3536120  65.4726300  24.6829320  17.0102890
  65.3070560  20.0166190  14.1214810  64.3674230  20.1780150  14.2067270
  65.6253820  20.7351870  13.5750800  69.3498770  25.3069490  17.6282900
  68.7311190  24.9689040  16.9809200  69.3323220  24.6629250  18.3362090
  68.7925330  21.4854030  25.0448710  68.3796510  22.3107740  25.2988700
  68.0601280  20.8999070  24.8525070  60.9258120  24.2713930  19.9067380
  60.5215120  23.5591180  19.4113280  61.0121240  23.9267170  20.7955420
  61.3939820  27.9581490  22.0706590  61.0968110  27.3526960  21.3914370
  62.3439640  27.9958800  21.9595950  59.6386740  21.0457140  23.6866420
  60.1901330  21.1552480  22.9119670  60.1530250  21.4194740  24.4021650
  69.4825430  31.5313360  25.7329690  69.0055990  32.3385550  25.5402300
  68.7987220  30.8791690  25.8855900  60.4858250  27.6963180  28.7214390
  59.5886780  27.9203150  28.9687790  60.5111120  27.8198120  27.7725790
  67.5263470  24.5456300  14.6355650  67.9656750  23.7078730  14.4893470
  68.2391890  25.1785700  14.7219790  59.3129470  24.5676500  27.2971760
  59.1737240  25.4399300  27.6659160  58.4310830  24.2249310  27.1519700
  65.6358850  29.4852370  18.6036890  66.0754760  30.2276700  18.1892280
  65.5745740  29.7278940  19.5275850  61.1109820  30.5098200  29.5056910
  61.0825250  30.9141150  28.6385340  60.9474790  29.5808560  29.3428510
  57.6262750  23.1658910  17.4074030  57.5060350  23.8921000  16.7955300
  57.3163640  22.3961820  16.9301940  55.2648120  26.3374050  23.2142670
  55.3428540  26.4722820  22.2698390  55.8789800  25.6289940  23.4070790
  56.5095750  28.0374240  19.6248850  56.1023830  28.1788830  18.7702450
  57.4008760  27.7534400  19.4220060  66.3274630  32.1866150  26.5315900
  66.8419300  32.0974160  27.3338330  65.4843710  32.5325850  26.8243810
  68.3029030  32.4721490  15.9599900  68.1430170  32.1824430  16.8581730
  68.1375740  31.6961620  15.4245130  60.7817410  32.2520020  17.7371520
  60.6059890  31.3355560  17.5239320  59.9273150  32.6107310  17.9769320
  68.0055160  29.9809050  14.5197900  67.3120320  29.9786340  13.8600180
  68.7478020  29.5568370  14.0892070  67.5705090  31.6071760  18.5946390
  68.0262040  30.8261140  18.9085010  67.9097610  32.3178580  19.1387570
  55.3207640  27.3788220  25.7537130  55.4838680  26.9093580  24.9356500
  55.7860090  26.8711780  26.4185970  60.0926410  16.5093980  20.7897700
  59.6494560  17.2903520  20.4582220  60.6511400  16.8323870  21.4968640
  64.3796220  19.3762500  26.3933020  63.9175590  19.5845520  27.2052960
  63.9774330  18.5621850  26.0903690  69.3800730  20.5971450  27.5229680
  68.5294320  20.2977200  27.8438750  69.2202520  20.8413460  26.6113500
  66.4750440  22.0973200  29.6228470  66.8003850  21.2636950  29.2830700
  67.2630770  22.6201720  29.7706800  63.2085230  16.1304680  15.6703530
  62.5839410  16.1264550  16.3956840  63.1215350  15.2635640  15.2739500
  62.1302310  17.0541310  22.6487300  62.4274640  17.9604140  22.5679320
  62.6787870  16.5660090  22.0346870  59.8840630  21.6327550  18.5178950
  59.6581550  21.4164720  19.4225570  59.1033160  22.0656010  18.1724920
  67.1138390  21.6390920  17.1169600  66.5147280  22.3626720  16.9333220
  67.6618000  21.5767700  16.3346050  62.3239840  22.5313130  29.1839220
  62.2283440  21.5907860  29.0339620  63.1671820  22.7528200  28.7887290
  65.7203260  20.2754460  19.1472880  66.1132830  20.5926660  18.3341570
  66.0820110  19.3966340  19.2617400  57.4550380  18.9426800  27.3373000
  57.0613770  19.7902010  27.5445780  56.7668780  18.3053170  27.5281640
  64.0295430  19.0261770  30.4069740  63.3393750  18.8333970  31.0415830
  64.7727730  19.3096410  30.9394040  54.7567430  16.8655260  21.3703080
  54.4680480  17.4358120  22.0828060  55.5013190  16.3859710  21.7334310
  54.9437660  20.8075380  12.5805800  54.8612330  21.7506140  12.7220790
  54.5920720  20.6650290  11.7018150  66.3058400  22.8660210  23.2423660
  65.5739520  23.3747020  23.5913760  65.9082740  22.0490190  22.9412440
  62.7435790  19.5414410  21.6476150  62.7471850  19.1004360  20.7980690
  63.6386910  19.8631740  21.7547970  58.5938170  19.4240900  20.6070360
  58.2538220  19.9016130  21.3637410  57.8315490  18.9706020  20.2471460
  62.8055940  20.5426490  14.6382910  62.9268760  20.5012970  15.5868730
  62.4204450  21.4050640  14.4829640  66.7684310  18.3193890  22.6546600
  66.7857050  18.7702540  23.4988450  66.5199890  17.4199530  22.8680040
  61.8177440  22.8527630  14.0366210  61.2494340  22.4045880  13.4102120
  62.5266440  23.2120410  13.5031360  56.8946620  26.7539650  27.9132940
  56.5101410  26.1133320  28.5115900  57.2058810  27.4575770  28.4827670
  63.0443760  23.6016190  23.3941560  63.4113890  23.1274760  24.1402900
  62.8548820  24.4757760  23.7349900  55.9084250  18.3459880  19.5235030
  55.6231170  17.9815550  20.3613650  55.8463110  17.6140340  18.9098170
  60.8343130  22.6424830  25.7125770  60.5300200  23.5216810  25.9376130
  61.7889590  22.7024620  25.7483210  59.3624920  26.8485820  16.3092620
  58.5887180  26.3083440  16.1491340  60.0919550  26.3292430  15.9710380
  65.5822840  17.2389140  16.2448400  64.7687450  16.7402310  16.1693710
  65.3884790  18.0787390  15.8284750  65.5031700  25.9160240  27.9888010
  65.4369010  24.9955910  27.7345600  64.8736840  26.0135680  28.7032650
  68.2971230  21.6108790  14.5410560  69.1850850  21.9226020  14.3661900
  68.2676320  20.7381040  14.1491140  59.4062320  26.5166200  19.9471430
  59.9240990  25.7134460  19.8928320  58.9546340  26.4545340  20.7888260
  64.2931820  27.7832480  15.2198730  64.6347520  28.5274710  14.7242050
  63.4644530  28.0963600  15.5823560  56.8906860  23.4827570  26.8597130
  56.5321800  24.1481420  27.4470470  56.5961420  22.6511120  27.2309750
  60.0919980  23.9411810  29.7436680  59.7920120  24.0868990  28.8464500
  60.8631220  23.3817100  29.6510070  65.4348430  28.7380810  27.7391810
  65.4492970  27.8061770  27.5210720  64.7273530  28.8240570  28.3781580
  67.1759230  27.1048320  20.5844240  67.5283050  26.5076450  19.9245610
  66.2921560  26.7792550  20.7552490  63.2622510  27.8646010  17.9914650
  63.9493640  28.4115220  18.3722240  62.4754930  28.4086740  18.0264260
  55.4014910  23.4818830  13.4831730  56.2709760  23.7643630  13.7667650
  54.9105230  24.2954700  13.3680540  62.5649720  24.8692040  17.6040010
  63.0212500  25.6797290  17.8300200  62.2137930  24.5515180  18.4358500
  64.8682330  30.3798380  24.8332310  65.5124550  30.5857760  25.5105730
  65.2311770  29.6186780  24.3803160  58.4661500  15.2129690  18.0762530
  58.3376130  15.2047590  19.0247450  57.6423520  15.5512780  17.7253540
  66.1414410  28.3830730  23.5509760  66.7836640  27.6823890  23.6641930
  66.6663760  29.1629170  23.3706650  69.9870130  28.6679350  13.2748900
  69.7607710  27.9509790  13.8673540  69.5966330  28.4191790  12.4370650
  67.9152030  29.1825630  26.7545820  68.2508270  29.7692320  27.4323740
  66.9952370  29.0518340  26.9843610  55.7686160  32.6946210  14.0493360
  56.1283800  33.2935550  13.3950630  55.6278500  33.2406100  14.8228390
  55.4655430  16.9720810  27.5369230  54.7513950  17.1717730  28.1421840
  55.8850470  16.1960380  27.9084030  55.7528020  30.9601070  28.5235760
  55.8619140  30.0195810  28.3831150  55.1008580  31.2255820  27.8749490
  63.7440610  29.2316960  29.9233880  63.4237480  28.5126200  30.4679570
  63.0698970  29.9072030  29.9969940  61.7854780  30.0777410  14.8667030
  61.7764880  30.8107100  14.2511540  60.8653140  29.8308990  14.9593990
  57.3861420  25.2992300  15.6113790  56.7789370  26.0391200  15.6209090
  57.8610770  25.3891660  14.7851990  66.9594210  19.4643120  25.2870680
  67.3275030  18.6438330  25.6150250  66.0992410  19.5245010  25.7026330
  64.7714380  30.1405650  13.5292220  64.8726360  29.9369640  12.5994200
  63.8716120  29.8863930  13.7340000  62.2940270  20.6986010  17.5116120
  61.5856420  21.1672350  17.9529730  62.5784750  20.0408020  18.1461310
  63.9196200  22.1182710  25.5108650  64.4181450  22.5928530  26.1760500
  64.0619150  21.1946230  25.7178680  66.3255700  17.4236670  18.9511910
  66.2023480  17.4422800  18.0021420  67.2740260  17.4715610  19.0710310
  63.4132490  32.6591970  18.2239890  63.6673990  32.6213360  17.3019260
  62.4644970  32.5325300  18.2168140  60.4975290  19.0071090  14.8866830
  61.3465820  19.4441240  14.8207020  60.1306560  19.3191350  15.7138890
  69.4185070  23.5783850  19.7998400  68.4775210  23.5934080  19.9746090
  69.7329140  22.7919810  20.2458700  59.3966710  25.2603450  13.3602360
  60.1629980  25.1484810  13.9227790  59.4741400  24.5641420  12.7079130
  58.0913470  22.6928520  14.0435250  58.1717060  21.7456030  14.1552650
  58.9833220  23.0235400  14.1495910  58.8928180  32.8423910  21.1469790
  59.6290660  32.2939370  21.4178360  59.2769100  33.7079920  21.0075780
  55.7773660  28.9097480  17.0211300  54.8513440  29.1518620  17.0116710
  56.2430090  29.7371740  16.8996050  62.0030490  32.0154220  12.9695360
  62.7959100  32.3043050  12.5177150  61.4834840  31.5846390  12.2907840
  66.7351090  28.1349850  30.2830780  66.1289250  28.1581450  29.5426530
  66.4305200  27.4032890  30.8198030  68.1651460  31.8630140  28.8940190
  69.1173210  31.7788160  28.8440430  68.0179680  32.5271850  29.5673980
  55.6184270  24.5143440  29.2791420  56.1223290  23.9350720  29.8507650
  54.8791690  24.7983670  29.8167790  62.5207890  27.2357630  12.8337710
  62.4158530  26.6209980  13.5599090  62.3532110  26.7123520  12.0500720
  62.6722210  25.9214430  28.8126940  61.9067880  26.4899430  28.7281610
  62.8538170  25.6290640  27.9195170  65.7610620  26.2977660  13.4379700
  65.2120720  26.7446960  14.0822440  66.3829880  25.7926910  13.9617370
  57.6507350  22.6573030  30.1741490  57.6912690  22.3586900  31.0826720
  58.5052850  23.0580640  30.0149010  61.4285740  25.2568580  15.3345000
  61.8502160  25.0908450  16.1776390  61.5536580  24.4468810  14.8400140
  59.5913160  21.2365130  28.1415980  59.0609620  20.7456080  27.5139320
  60.2601230  21.6649330  27.6073910  63.9413380  24.2806190  12.5822100
  64.4619040  23.5655210  12.2163250  64.5881780  24.9192060  12.8822610
  68.4891220  25.7034590  27.9057170  68.9032240  25.8579670  28.7547590
  67.5542220  25.8289810  28.0682950  68.9613390  23.0430750  29.9096320
  69.5434160  22.2883070  29.8216800  69.1375160  23.5738190  29.1327800
  60.0785460  18.2027500  28.2213270  59.9842330  17.5848250  27.4964140
  59.4982850  18.9293790  27.9943180  62.8446900  16.7600740  25.2540660
  62.3964200  16.7825000  24.4086210  62.2112100  16.3619760  25.8510960
  63.2506450  25.6555070  25.8753100  63.6694560  26.4987800  25.7029340
  62.3315080  25.7927110  25.6459880  65.5870350  23.3871250  27.2590940
  65.7066560  22.7912390  27.9985780  66.4464350  23.4240940  26.8392240
  67.9258250  23.9408440  25.8353450  67.3993470  24.4651060  25.2318590
  68.2689590  24.5735830  26.4663180  60.3244640  21.3301810  12.2803160
  60.1233700  20.4669170  12.6416500  60.1536690  21.2435170  11.3424760
  61.1013870  31.9608080  26.9910830  60.5634960  32.6854140  26.6719530
  61.3547830  31.4838420  26.2008170  62.3539120  19.9292600  28.5166760
  62.9438810  19.6208450  29.2044580  61.5359360  19.4572350  28.6726660
  67.1732550  19.5458410  28.7499780  66.4848070  18.8839950  28.6849770
  67.8938570  19.0996680  29.1948240  67.8032950  16.1410040  14.8090040
  68.0835240  15.2977940  15.1649460  67.0298680  16.3733150  15.3228790
  59.1227440  18.4302430  12.2681040  59.4253340  18.4369860  11.3600190
  59.8622030  18.0800290  12.7648700  63.9576080  33.1959290  27.2497480
  63.8834780  34.0994430  27.5569850  63.0554920  32.8771190  27.2219550
  62.3412370  17.3737050  13.2537240  61.9934370  16.6961040  12.6739690
  62.5425140  16.9126560  14.0680630  64.5061410  32.3617800  14.8723840
  65.4012200  32.7002770  14.8942600  64.5379040  31.6397210  14.2448120
  58.1457570  27.7344850  13.1010840  58.5832440  28.2774520  13.7568420
  58.6305300  26.9091800  13.1107180  55.3603370  30.5233880  20.5531100
  55.6906380  29.6554940  20.3209740  55.7894370  30.7292400  21.3836060
  59.9565290  28.8542890  18.2133070  59.6560830  28.7307860  19.1136980
  59.8502780  27.9951480  17.8048800  55.8493580  31.3904470  23.2912730
  55.4124570  31.5705270  24.1236880  56.4171260  32.1479090  23.1494450
  55.6818010  23.9024700  19.6501610  55.0266850  23.6336340  19.0061310
  56.5195960  23.7929180  19.2003590  68.6308450  18.6965990  13.8720100
  69.0493330  18.5096970  13.0316760  68.3244510  17.8445040  14.1823030
  56.7193940  24.2877270  24.1904950  57.0866980  24.2004670  25.0700970
  56.1504760  23.5243820  24.0911810  56.2709940  21.1986360  28.0963370
  55.3765990  21.1653120  28.4357080  56.8107490  21.3973150  28.8614620
  54.8956090  21.1123630  15.5926940  53.9920170  21.3753830  15.4178600
  55.3796710  21.3834800  14.8126900  57.4383300  20.1689170  13.5021320
  58.1475000  19.7472390  13.0168600  56.7223240  20.2364400  12.8704670
  57.0857460  16.2228500  12.5423970  57.8085590  16.7637440  12.8605190
  57.3581980  15.9491920  11.6665510  56.7749650  15.4734690  22.4446590
  57.4225840  14.9232070  22.0041750  57.1951490  15.7277840  23.2662400
  56.5281650  15.6290360  25.1871910  56.1796470  16.0854180  25.9530090
  56.1969350  14.7347490  25.2694340  61.8352050  30.3569550  24.9534820
  61.5943410  30.6244110  24.0665340  62.7754690  30.5275280  25.0085680
  64.0406470  16.8202240  28.7091330  63.9795360  17.4124070  29.4586740
  64.9806850  16.7128200  28.5641590  66.6781030  16.4772300  28.3483620
  67.2921440  16.7951590  27.6864700  67.2230590  15.9920890  28.9679480
  57.2002290  15.1566560  28.4622680  57.7485280  14.9754610  27.6988790
  57.2657600  14.3660670  28.9978990  57.9734050  31.7472210  26.4722880
  57.3794370  31.6156910  27.2112920  57.9657890  30.9110350  26.0064980
  67.4189070  15.0404440  24.6752910  66.5448910  15.3739550  24.4725840
  67.3099820  14.5677620  25.5004780  68.3261050  17.2475310  26.0594630
  67.9974410  16.4327070  25.6796360  69.2743350  17.2045120  25.9360320
  57.6046280  29.1130590  25.4230920  56.8780340  28.4935880  25.3556870
  57.6655430  29.5071200  24.5529000  61.2091380  31.3275590  22.2080330
  61.7256400  30.7162950  21.6828590  61.8588760  31.8304370  22.6991340
  63.9486880  32.2184080  23.0349310  64.2364690  31.9638380  22.1582320
  64.4610100  31.6661440  23.6254880  65.1663890  15.9574280  23.6145820
  64.3835680  16.4319780  23.8942580  64.8726820  15.0529110  23.5059000
  55.8876280  32.4304980  18.6327680  55.7198320  31.7975660  19.3309570
  55.0210790  32.6364380  18.2821870  56.5104300  16.2621760  16.1359540
  57.2683660  16.3750640  15.5623570  56.0481470  17.0990960  16.0902970
  63.0518110  18.3761030  19.1261850  62.2392620  18.0017920  18.7857730
  63.5559750  17.6206110  19.4283040  67.5543090  15.0403480  20.3644920
  68.1572460  15.6123690  20.8393440  66.8136080  15.6042920  20.1418820
  57.4938980  31.1238210  16.0777820  56.9686600  31.5046240  15.3739780
  57.4183560  31.7488980  16.7987530  58.8829450  16.7885810  14.6761510
  59.4122210  16.0015610  14.5469460  59.5157770  17.4677000  14.9097040
  61.0767290  16.5260950  17.7306900  60.4470030  15.8248260  17.8977030
  60.5372430  17.2865080  17.5140060  64.0159240  33.1400180  30.4017510
  64.9426550  32.9044450  30.4453470  64.0009670  33.9672180  29.9203540
  61.2022850  15.8044930  30.1659390  60.9207120  16.3078530  29.4020210
  61.5842550  15.0066680  29.8001520  60.0931950  33.0720590  14.9527070
  60.8250770  32.7879870  14.4050960  60.3525620  32.8333870  15.8426450
  59.2546740  29.1885320  14.9573400  58.6255620  29.6570420  15.5059230
  59.3694570  28.3434540  15.3919590  67.8038310  15.2198510  30.7439860
  67.6903760  15.5393120  31.6391380  68.6208050  15.6211020  30.4477140
  64.8414500  25.0170000   2.9883870  64.0656600  24.5370440   3.2782440
  65.4927430  24.3375650   2.8140030  58.8580330  25.3289810   3.8659630
  58.0265210  25.0738520   4.2656140  59.4661310  25.4000580   4.6017550
  68.8621930  29.4230190   1.7683000  68.4003460  28.6517430   2.0970170
  69.6747480  29.4496260   2.2735450  58.8381590  29.3629900   4.0617650
  59.1409630  28.4727640   3.8827870  59.5825180  29.9200120   3.8339900
  55.2305290  22.8897350   3.5341720  55.8021400  22.1219550   3.5345360
  55.2306830  23.1886110   2.6248330  64.2823490  27.6927190   2.9954030
  64.2131770  26.7517130   2.8343160  65.0443350  27.7828600   3.5676600
  56.4730160  18.2981710   5.3210650  56.2933000  17.4007460   5.6013410
  56.0710240  18.8453580   5.9957600  65.3128660  20.4997570   3.2222960
  65.6893480  19.6269450   3.1096630  65.2148170  20.8356270   2.3313400
  57.0916830  20.7942210   3.9292990  57.7726940  21.0580580   4.5480390
  56.7764880  19.9543080   4.2631000  61.2841400  21.8409570   3.0165580
  61.7919620  22.3390540   3.6570600  61.8154640  21.0644770   2.8404940
  59.5677500  16.4808130   7.2829000  59.5695940  16.9980520   6.4774900
  58.7381810  16.0038310   7.2598930  60.8180350  26.1203310   5.4602500
  60.4849730  26.7472230   6.1023570  60.9947030  26.6465190   4.6804170
  69.3314260  19.9348390   2.9278840  68.6269830  20.2233280   3.5081950
  69.6926420  20.7448500   2.5678400  59.2492830  18.1918090   5.2899450
  59.5909640  19.0360140   4.9953320  58.3108640  18.3401830   5.4064790
  60.0299450  28.0884110   7.2751680  60.6473450  28.7635190   6.9936130
  59.1692570  28.4972090   7.1839180  68.4835780  31.3967650   3.9051500
  68.4962940  30.9929940   3.0373760  67.9311000  32.1714940   3.8012930
  67.8821220  26.2997490   5.2334110  68.2990010  26.0857600   4.3987570
  68.6061040  26.5570280   5.8042730  68.7925330  21.4854030   6.2705220
  68.3796510  22.3107740   6.5245210  68.0601280  20.8999070   6.0781580
  61.3939820  27.9581490   3.2963100  61.0968110  27.3526960   2.6170880
  62.3439640  27.9958800   3.1852460  59.6386740  21.0457140   4.9122930
  60.1901330  21.1552480   4.1376180  60.1530250  21.4194740   5.6278160
  69.4825430  31.5313360   6.9586200  69.0055990  32.3385550   6.7658810
  68.7987220  30.8791690   7.1112410  60.4858250  27.6963180   9.9470900
  59.5886780  27.9203150  10.1944300  60.5111120  27.8198120   8.9982300
  59.3129470  24.5676500   8.5228270  59.1737240  25.4399300   8.8915670
  58.4310830  24.2249310   8.3776210  61.1109820  30.5098200  10.7313420
  61.0825250  30.9141150   9.8641850  60.9474790  29.5808560  10.5685020
  55.2648120  26.3374050   4.4399180  55.3428540  26.4722820   3.4954900
  55.8789800  25.6289940   4.6327300  66.3274630  32.1866150   7.7572410
  66.8419300  32.0974160   8.5594840  65.4843710  32.5325850   8.0500320
  55.3207640  27.3788220   6.9793640  55.4838680  26.9093580   6.1613010
  55.7860090  26.8711780   7.6442480  60.0926410  16.5093980   2.0154210
  59.6494560  17.2903520   1.6838730  60.6511400  16.8323870   2.7225150
  64.3796220  19.3762500   7.6189530  63.9175590  19.5845520   8.4309470
  63.9774330  18.5621850   7.3160200  69.3800730  20.5971450   8.7486190
  68.5294320  20.2977200   9.0695260  69.2202520  20.8413460   7.8370010
  66.4750440  22.0973200  10.8484980  66.8003850  21.2636950  10.5087210
  67.2630770  22.6201720  10.9963310  62.1302310  17.0541310   3.8743810
  62.4274640  17.9604140   3.7935830  62.6787870  16.5660090   3.2603380
  62.3239840  22.5313130  10.4095730  62.2283440  21.5907860  10.2596130
  63.1671820  22.7528200  10.0143800  57.4550380  18.9426800   8.5629510
  57.0613770  19.7902010   8.7702290  56.7668780  18.3053170   8.7538150
  64.0295430  19.0261770  11.6326250  63.3393750  18.8333970  12.2672340
  64.7727730  19.3096410  12.1650550  54.7567430  16.8655260   2.5959590
  54.4680480  17.4358120   3.3084570  55.5013190  16.3859710   2.9590820
  66.3058400  22.8660210   4.4680170  65.5739520  23.3747020   4.8170270
  65.9082740  22.0490190   4.1668950  62.7435790  19.5414410   2.8732660
  62.7471850  19.1004360   2.0237200  63.6386910  19.8631740   2.9804480
  58.5938170  19.4240900   1.8326870  58.2538220  19.9016130   2.5893920
  57.8315490  18.9706020   1.4727970  66.7684310  18.3193890   3.8803110
  66.7857050  18.7702540   4.7244960  66.5199890  17.4199530   4.0936550
  56.8946620  26.7539650   9.1389450  56.5101410  26.1133320   9.7372410
  57.2058810  27.4575770   9.7084180  63.0443760  23.6016190   4.6198070
  63.4113890  23.1274760   5.3659410  62.8548820  24.4757760   4.9606410
  60.8343130  22.6424830   6.9382280  60.5300200  23.5216810   7.1632640
  61.7889590  22.7024620   6.9739720  65.5031700  25.9160240   9.2144520
  65.4369010  24.9955910   8.9602110  64.8736840  26.0135680   9.9289160
  56.8906860  23.4827570   8.0853640  56.5321800  24.1481420   8.6726980
  56.5961420  22.6511120   8.4566260  60.0919980  23.9411810  10.9693190
  59.7920120  24.0868990  10.0721010  60.8631220  23.3817100  10.8766580
  65.4348430  28.7380810   8.9648320  65.4492970  27.8061770   8.7467230
  64.7273530  28.8240570   9.6038090  64.8682330  30.3798380   6.0588820
  65.5124550  30.5857760   6.7362240  65.2311770  29.6186780   5.6059670
  66.1414410  28.3830730   4.7766270  66.7836640  27.6823890   4.8898440
  66.6663760  29.1629170   4.5963160  67.9152030  29.1825630   7.9802330
  68.2508270  29.7692320   8.6580250  66.9952370  29.0518340   8.2100120
  55.4655430  16.9720810   8.7625740  54.7513950  17.1717730   9.3678350
  55.8850470  16.1960380   9.1340540  55.7528020  30.9601070   9.7492270
  55.8619140  30.0195810   9.6087660  55.1008580  31.2255820   9.1006000
  63.7440610  29.2316960  11.1490390  63.4237480  28.5126200  11.6936080
  63.0698970  29.9072030  11.2226450  66.9594210  19.4643120   6.5127190
  67.3275030  18.6438330   6.8406760  66.0992410  19.5245010   6.9282840
  63.9196200  22.1182710   6.7365160  64.4181450  22.5928530   7.4017010
  64.0619150  21.1946230   6.9435190  58.8928180  32.8423910   2.3726300
  59.6290660  32.2939370   2.6434870  59.2769100  33.7079920   2.2332290
  57.8986460  32.0269980  11.5611880  58.6999190  32.3482030  11.9747280
  57.3838280  31.6665560  12.2831790  66.7351090  28.1349850  11.5087290
  66.1289250  28.1581450  10.7683040  66.4305200  27.4032890  12.0454540
  68.1651460  31.8630140  10.1196700  69.1173210  31.7788160  10.0696940
  68.0179680  32.5271850  10.7930490  55.6184270  24.5143440  10.5047930
  56.1223290  23.9350720  11.0764160  54.8791690  24.7983670  11.0424300
  62.6722210  25.9214430  10.0383450  61.9067880  26.4899430   9.9538120
  62.8538170  25.6290640   9.1451680  57.6507350  22.6573030  11.3998000
  57.6912690  22.3586900  12.3083230  58.5052850  23.0580640  11.2405520
  59.5913160  21.2365130   9.3672490  59.0609620  20.7456080   8.7395830
  60.2601230  21.6649330   8.8330420  68.4891220  25.7034590   9.1313680
  68.9032240  25.8579670   9.9804100  67.5542220  25.8289810   9.2939460
  68.9613390  23.0430750  11.1352830  69.5434160  22.2883070  11.0473310
  69.1375160  23.5738190  10.3584310  60.0785460  18.2027500   9.4469780
  59.9842330  17.5848250   8.7220650  59.4982850  18.9293790   9.2199690
  62.8446900  16.7600740   6.4797170  62.3964200  16.7825000   5.6342720
  62.2112100  16.3619760   7.0767470  63.2506450  25.6555070   7.1009610
  63.6694560  26.4987800   6.9285850  62.3315080  25.7927110   6.8716390
  65.5870350  23.3871250   8.4847450  65.7066560  22.7912390   9.2242290
  66.4464350  23.4240940   8.0648750  67.9258250  23.9408440   7.0609960
  67.3993470  24.4651060   6.4575100  68.2689590  24.5735830   7.6919690
  61.1013870  31.9608080   8.2167340  60.5634960  32.6854140   7.8976040
  61.3547830  31.4838420   7.4264680  62.3539120  19.9292600   9.7423270
  62.9438810  19.6208450  10.4301090  61.5359360  19.4572350   9.8983170
  67.1732550  19.5458410   9.9756290  66.4848070  18.8839950   9.9106280
  67.8938570  19.0996680  10.4204750  63.9576080  33.1959290   8.4753990
  63.8834780  34.0994430   8.7826360  63.0554920  32.8771190   8.4476060
  55.3603370  30.5233880   1.7787610  55.6906380  29.6554940   1.5466250
  55.7894370  30.7292400   2.6092570  55.8493580  31.3904470   4.5169240
  55.4124570  31.5705270   5.3493390  56.4171260  32.1479090   4.3750960
  56.7193940  24.2877270   5.4161460  57.0866980  24.2004670   6.2957480
  56.1504760  23.5243820   5.3168320  56.2709940  21.1986360   9.3219880
  55.3765990  21.1653120   9.6613590  56.8107490  21.3973150  10.0871130
  56.7749650  15.4734690   3.6703100  57.4225840  14.9232070   3.2298260
  57.1951490  15.7277840   4.4918910  56.5281650  15.6290360   6.4128420
  56.1796470  16.0854180   7.1786600  56.1969350  14.7347490   6.4950850
  58.1346020  28.8009960  10.5781610  58.0915650  28.4302870  11.4596070
  58.2657030  29.7387530  10.7183430  61.8352050  30.3569550   6.1791330
  61.5943410  30.6244110   5.2921850  62.7754690  30.5275280   6.2342190
  64.0406470  16.8202240   9.9347840  63.9795360  17.4124070  10.6843250
  64.9806850  16.7128200   9.7898100  66.6781030  16.4772300   9.5740130
  67.2921440  16.7951590   8.9121210  67.2230590  15.9920890  10.1935990
  57.2002290  15.1566560   9.6879190  57.7485280  14.9754610   8.9245300
  57.2657600  14.3660670  10.2235500  57.9734050  31.7472210   7.6979390
  57.3794370  31.6156910   8.4369430  57.9657890  30.9110350   7.2321490
  67.4189070  15.0404440   5.9009420  66.5448910  15.3739550   5.6982350
  67.3099820  14.5677620   6.7261290  68.3261050  17.2475310   7.2851140
  67.9974410  16.4327070   6.9052870  69.2743350  17.2045120   7.1616830
  57.6046280  29.1130590   6.6487430  56.8780340  28.4935880   6.5813380
  57.6655430  29.5071200   5.7785510  61.2091380  31.3275590   3.4336840
  61.7256400  30.7162950   2.9085100  61.8588760  31.8304370   3.9247850
  63.9486880  32.2184080   4.2605820  64.2364690  31.9638380   3.3838830
  64.4610100  31.6661440   4.8511390  65.1663890  15.9574280   4.8402330
  64.3835680  16.4319780   5.1199090  64.8726820  15.0529110   4.7315510
  64.0159240  33.1400180  11.6274020  64.9426550  32.9044450  11.6709980
  64.0009670  33.9672180  11.1460050  61.2022850  15.8044930  11.3915900
  60.9207120  16.3078530  10.6276720  61.5842550  15.0066680  11.0258030
  67.8038310  15.2198510  11.9696370  67.6903760  15.5393120  12.8647890
  68.6208050  15.6211020  11.6733650  66.7096460   4.4647490  57.4305070
  66.6290510   3.5502100  57.1596780  66.2960880   4.9614560  56.7244780
  64.8414500   6.2426510  59.3114340  64.0656600   5.7626950  59.6012910
  65.4927430   5.5632160  59.1370500  68.8621930  10.6486700  58.0913470
  68.4003460   9.8773940  58.4200640  69.6747480  10.6752770  58.5965920
  55.2305290   4.1153860  59.8572190  55.8021400   3.3476060  59.8575830
  55.2306830   4.4142620  58.9478800  65.0885240  12.9344710  57.7117460
  64.4696680  13.3902210  57.1411900  65.9437020  13.0896170  57.3107160
  64.2823490   8.9183700  59.3184500  64.2131770   7.9773640  59.1573630
  65.0443350   9.0085110  59.8907070  61.2841400   3.0666080  59.3396050
  61.7919620   3.5647050  59.9801070  61.8154640   2.2901280  59.1635410
  65.9548590   7.8183950  55.1049370  65.3365860   8.2833400  54.5412090
  66.4671840   8.5111430  55.5218880  55.3231790   8.5040480  52.4789000
  54.9459770   8.9927580  51.7473900  55.5804860   9.1765760  53.1095530
  68.4835780  12.6224160  60.2281970  68.4962940  12.2186450  59.3604230
  67.9311000  13.3971450  60.1243400  69.7781200   9.3440380  55.3172140
  69.6677530   8.4014710  55.4421560  69.7749450   9.7056020  56.2034900
  65.3201480   4.9705700  54.6734630  64.3930760   4.9043080  54.9023100
  65.4726300   5.9085830  54.5589870  69.3498770   6.5326000  55.1769880
  68.7311190   6.1945550  54.5296180  69.3323220   5.8885760  55.8849070
  60.9258120   5.4970440  57.4554360  60.5215120   4.7847690  56.9600260
  61.0121240   5.1523680  58.3442400  61.3939820   9.1838000  59.6193570
  61.0968110   8.5783470  58.9401350  62.3439640   9.2215310  59.5082930
  67.5263470   5.7712810  52.1842630  67.9656750   4.9335240  52.0380450
  68.2391890   6.4042210  52.2706770  65.6358850  10.7108880  56.1523870
  66.0754760  11.4533210  55.7379260  65.5745740  10.9535450  57.0762830
  57.6262750   4.3915420  54.9561010  57.5060350   5.1177510  54.3442280
  57.3163640   3.6218330  54.4788920  56.5095750   9.2630750  57.1735830
  56.1023830   9.4045340  56.3189430  57.4008760   8.9790910  56.9707040
  68.3029030  13.6978000  53.5086880  68.1430170  13.4080940  54.4068710
  68.1375740  12.9218130  52.9732110  60.7817410  13.4776530  55.2858500
  60.6059890  12.5612070  55.0726300  59.9273150  13.8363820  55.5256300
  68.0055160  11.2065560  52.0684880  67.3120320  11.2042850  51.4087160
  68.7478020  10.7824880  51.6379050  67.5705090  12.8328270  56.1433370
  68.0262040  12.0517650  56.4571990  67.9097610  13.5435090  56.6874550
  59.8840630   2.8584060  56.0665930  59.6581550   2.6421230  56.9712550
  59.1033160   3.2912520  55.7211900  67.1138390   2.8647430  54.6656580
  66.5147280   3.5883230  54.4820200  67.6618000   2.8024210  53.8833030
  54.9437660   2.0331890  50.1292780  54.8612330   2.9762650  50.2707770
  54.5920720   1.8906800  49.2505130  62.8055940   1.7683000  52.1869890
  62.9268760   1.7269480  53.1355710  62.4204450   2.6307150  52.0316620
  61.8177440   4.0784140  51.5853190  61.2494340   3.6302390  50.9589100
  62.5266440   4.4376920  51.0518340  59.3624920   8.0742330  53.8579600
  58.5887180   7.5339950  53.6978320  60.0919550   7.5548940  53.5197360
  68.2971230   2.8365300  52.0897540  69.1850850   3.1482530  51.9148880
  68.2676320   1.9637550  51.6978120  59.4062320   7.7422710  57.4958410
  59.9240990   6.9390970  57.4415300  58.9546340   7.6801850  58.3375240
  64.2931820   9.0088990  52.7685710  64.6347520   9.7531220  52.2729030
  63.4644530   9.3220110  53.1310540  67.1759230   8.3304830  58.1331220
  67.5283050   7.7332960  57.4732590  66.2921560   8.0049060  58.3039470
  63.2622510   9.0902520  55.5401630  63.9493640   9.6371730  55.9209220
  62.4754930   9.6343250  55.5751240  55.4014910   4.7075340  51.0318710
  56.2709760   4.9900140  51.3154630  54.9105230   5.5211210  50.9167520
  62.5649720   6.0948550  55.1526990  63.0212500   6.9053800  55.3787180
  62.2137930   5.7771690  55.9845480  69.9870130   9.8935860  50.8235880
  69.7607710   9.1766300  51.4160520  69.5966330   9.6448300  49.9857630
  55.7686160  13.9202720  51.5980340  56.1283800  14.5192060  50.9437610
  55.6278500  14.4662610  52.3715370  61.7854780  11.3033920  52.4154010
  61.7764880  12.0363610  51.7998520  60.8653140  11.0565500  52.5080970
  57.3861420   6.5248810  53.1600770  56.7789370   7.2647710  53.1696070
  57.8610770   6.6148170  52.3338970  64.7714380  11.3662160  51.0779200
  64.8726360  11.1626150  50.1481180  63.8716120  11.1120440  51.2826980
  63.4132490  13.8848480  55.7726870  63.6673990  13.8469870  54.8506240
  62.4644970  13.7581810  55.7655120  69.4185070   4.8040360  57.3485380
  68.4775210   4.8190590  57.5233070  69.7329140   4.0176320  57.7945680
  59.3966710   6.4859960  50.9089340  60.1629980   6.3741320  51.4714770
  59.4741400   5.7897930  50.2566110  58.0913470   3.9185030  51.5922230
  58.1717060   2.9712540  51.7039630  58.9833220   4.2491910  51.6982890
  58.8928180  14.0680420  58.6956770  59.6290660  13.5195880  58.9665340
  59.2769100  14.9336430  58.5562760  55.7773660  10.1353990  54.5698280
  54.8513440  10.3775130  54.5603690  56.2430090  10.9628250  54.4483030
  62.0030490  13.2410730  50.5182340  62.7959100  13.5299560  50.0664130
  61.4834840  12.8102900  49.8394820  62.5207890   8.4614140  50.3824690
  62.4158530   7.8466490  51.1086070  62.3532110   7.9380030  49.5987700
  65.7610620   7.5234170  50.9866680  65.2120720   7.9703470  51.6309420
  66.3829880   7.0183420  51.5104350  61.4285740   6.4825090  52.8831980
  61.8502160   6.3164960  53.7263370  61.5536580   5.6725320  52.3887120
  63.9413380   5.5062700  50.1309080  64.4619040   4.7911720  49.7650230
  64.5881780   6.1448570  50.4309590  60.3244640   2.5558320  49.8290140
  60.1233700   1.6925680  50.1903480  60.1536690   2.4691680  48.8911740
  64.5061410  13.5874310  52.4210820  65.4012200  13.9259280  52.4429580
  64.5379040  12.8653720  51.7935100  58.1457570   8.9601360  50.6497820
  58.5832440   9.5031030  51.3055400  58.6305300   8.1348310  50.6594160
  55.3603370  11.7490390  58.1018080  55.6906380  10.8811450  57.8696720
  55.7894370  11.9548910  58.9323040  59.9565290  10.0799400  55.7620050
  59.6560830   9.9564370  56.6623960  59.8502780   9.2207990  55.3535780
  55.6818010   5.1281210  57.1988590  55.0266850   4.8592850  56.5548290
  56.5195960   5.0185690  56.7490570  54.8956090   2.3380140  53.1413920
  53.9920170   2.6010340  52.9665580  55.3796710   2.6091310  52.3613880
  61.2091380  12.5532100  59.7567310  61.7256400  11.9419460  59.2315570
  61.8588760  13.0560880  60.2478320  55.8876280  13.6561490  56.1814660
  55.7198320  13.0232170  56.8796550  55.0210790  13.8620890  55.8308850
  57.4938980  12.3494720  53.6264800  56.9686600  12.7302750  52.9226760
  57.4183560  12.9745490  54.3474510  60.0931950  14.2977100  52.5014050
  60.8250770  14.0136380  51.9537940  60.3525620  14.0590380  53.3913430
  59.2546740  10.4141830  52.5060380  58.6255620  10.8826930  53.0546210
  59.3694570   9.5691050  52.9406570  66.7096460   4.4647490  38.6561580
  66.6290510   3.5502100  38.3853290  66.2960880   4.9614560  37.9501290
  64.8414500   6.2426510  40.5370850  64.0656600   5.7626950  40.8269420
  65.4927430   5.5632160  40.3627010  58.8580330   6.5546320  41.4146610
  58.0265210   6.2995030  41.8143120  59.4661310   6.6257090  42.1504530
  68.8621930  10.6486700  39.3169980  68.4003460   9.8773940  39.6457150
  69.6747480  10.6752770  39.8222430  58.8381590  10.5886410  41.6104630
  59.1409630   9.6984150  41.4314850  59.5825180  11.1456630  41.3826880
  55.2305290   4.1153860  41.0828700  55.8021400   3.3476060  41.0832340
  55.2306830   4.4142620  40.1735310  65.0885240  12.9344710  38.9373970
  64.4696680  13.3902210  38.3668410  65.9437020  13.0896170  38.5363670
  64.2823490   8.9183700  40.5441010  64.2131770   7.9773640  40.3830140
  65.0443350   9.0085110  41.1163580  61.2841400   3.0666080  40.5652560
  61.7919620   3.5647050  41.2057580  61.8154640   2.2901280  40.3891920
  65.9548590   7.8183950  36.3305880  65.3365860   8.2833400  35.7668600
  66.4671840   8.5111430  36.7475390  60.8180350   7.3459820  43.0089480
  60.4849730   7.9728740  43.6510550  60.9947030   7.8721700  42.2291150
  60.0299450   9.3140620  44.8238660  60.6473450   9.9891700  44.5423110
  59.1692570   9.7228600  44.7326160  55.3231790   8.5040480  33.7045510
  54.9459770   8.9927580  32.9730410  55.5804860   9.1765760  34.3352040
  68.4835780  12.6224160  41.4538480  68.4962940  12.2186450  40.5860740
  67.9311000  13.3971450  41.3499910  69.7781200   9.3440380  36.5428650
  69.6677530   8.4014710  36.6678070  69.7749450   9.7056020  37.4291410
  67.8821220   7.5254000  42.7821090  68.2990010   7.3114110  41.9474550
  68.6061040   7.7826790  43.3529710  65.3201480   4.9705700  35.8991140
  64.3930760   4.9043080  36.1279610  65.4726300   5.9085830  35.7846380
  69.3498770   6.5326000  36.4026390  68.7311190   6.1945550  35.7552690
  69.3323220   5.8885760  37.1105580  68.7925330   2.7110540  43.8192200
  68.3796510   3.5364250  44.0732190  68.0601280   2.1255580  43.6268560
  60.9258120   5.4970440  38.6810870  60.5215120   4.7847690  38.1856770
  61.0121240   5.1523680  39.5698910  61.3939820   9.1838000  40.8450080
  61.0968110   8.5783470  40.1657860  62.3439640   9.2215310  40.7339440
  59.6386740   2.2713650  42.4609910  60.1901330   2.3808990  41.6863160
  60.1530250   2.6451250  43.1765140  69.4825430  12.7569870  44.5073180
  69.0055990  13.5642060  44.3145790  68.7987220  12.1048200  44.6599390
  60.4858250   8.9219690  47.4957880  59.5886780   9.1459660  47.7431280
  60.5111120   9.0454630  46.5469280  67.5263470   5.7712810  33.4099140
  67.9656750   4.9335240  33.2636960  68.2391890   6.4042210  33.4963280
  59.3129470   5.7933010  46.0715250  59.1737240   6.6655810  46.4402650
  58.4310830   5.4505820  45.9263190  65.6358850  10.7108880  37.3780380
  66.0754760  11.4533210  36.9635770  65.5745740  10.9535450  38.3019340
  61.1109820  11.7354710  48.2800400  61.0825250  12.1397660  47.4128830
  60.9474790  10.8065070  48.1172000  57.6262750   4.3915420  36.1817520
  57.5060350   5.1177510  35.5698790  57.3163640   3.6218330  35.7045430
  55.2648120   7.5630560  41.9886160  55.3428540   7.6979330  41.0441880
  55.8789800   6.8546450  42.1814280  56.5095750   9.2630750  38.3992340
  56.1023830   9.4045340  37.5445940  57.4008760   8.9790910  38.1963550
  66.3274630  13.4122660  45.3059390  66.8419300  13.3230670  46.1081820
  65.4843710  13.7582360  45.5987300  68.3029030  13.6978000  34.7343390
  68.1430170  13.4080940  35.6325220  68.1375740  12.9218130  34.1988620
  60.7817410  13.4776530  36.5115010  60.6059890  12.5612070  36.2982810
  59.9273150  13.8363820  36.7512810  68.0055160  11.2065560  33.2941390
  67.3120320  11.2042850  32.6343670  68.7478020  10.7824880  32.8635560
  67.5705090  12.8328270  37.3689880  68.0262040  12.0517650  37.6828500
  67.9097610  13.5435090  37.9131060  55.3207640   8.6044730  44.5280620
  55.4838680   8.1350090  43.7099990  55.7860090   8.0968290  45.1929460
  66.4750440   3.3229710  48.3971960  66.8003850   2.4893460  48.0574190
  67.2630770   3.8458230  48.5450290  59.8840630   2.8584060  37.2922440
  59.6581550   2.6421230  38.1969060  59.1033160   3.2912520  36.9468410
  67.1138390   2.8647430  35.8913090  66.5147280   3.5883230  35.7076710
  67.6618000   2.8024210  35.1089540  62.3239840   3.7569640  47.9582710
  62.2283440   2.8164370  47.8083110  63.1671820   3.9784710  47.5630780
  54.9437660   2.0331890  31.3549290  54.8612330   2.9762650  31.4964280
  54.5920720   1.8906800  30.4761640  66.3058400   4.0916720  42.0167150
  65.5739520   4.6003530  42.3657250  65.9082740   3.2746700  41.7155930
  62.8055940   1.7683000  33.4126400  62.9268760   1.7269480  34.3612220
  62.4204450   2.6307150  33.2573130  61.8177440   4.0784140  32.8109700
  61.2494340   3.6302390  32.1845610  62.5266440   4.4376920  32.2774850
  56.8946620   7.9796160  46.6876430  56.5101410   7.3389830  47.2859390
  57.2058810   8.6832280  47.2571160  63.0443760   4.8272700  42.1685050
  63.4113890   4.3531270  42.9146390  62.8548820   5.7014270  42.5093390
  60.8343130   3.8681340  44.4869260  60.5300200   4.7473320  44.7119620
  61.7889590   3.9281130  44.5226700  59.3624920   8.0742330  35.0836110
  58.5887180   7.5339950  34.9234830  60.0919550   7.5548940  34.7453870
  65.5031700   7.1416750  46.7631500  65.4369010   6.2212420  46.5089090
  64.8736840   7.2392190  47.4776140  68.2971230   2.8365300  33.3154050
  69.1850850   3.1482530  33.1405390  68.2676320   1.9637550  32.9234630
  59.4062320   7.7422710  38.7214920  59.9240990   6.9390970  38.6671810
  58.9546340   7.6801850  39.5631750  64.2931820   9.0088990  33.9942220
  64.6347520   9.7531220  33.4985540  63.4644530   9.3220110  34.3567050
  56.8906860   4.7084080  45.6340620  56.5321800   5.3737930  46.2213960
  56.5961420   3.8767630  46.0053240  60.0919980   5.1668320  48.5180170
  59.7920120   5.3125500  47.6207990  60.8631220   4.6073610  48.4253560
  65.4348430   9.9637320  46.5135300  65.4492970   9.0318280  46.2954210
  64.7273530  10.0497080  47.1525070  67.1759230   8.3304830  39.3587730
  67.5283050   7.7332960  38.6989100  66.2921560   8.0049060  39.5295980
  63.2622510   9.0902520  36.7658140  63.9493640   9.6371730  37.1465730
  62.4754930   9.6343250  36.8007750  55.4014910   4.7075340  32.2575220
  56.2709760   4.9900140  32.5411140  54.9105230   5.5211210  32.1424030
  62.5649720   6.0948550  36.3783500  63.0212500   6.9053800  36.6043690
  62.2137930   5.7771690  37.2101990  64.8682330  11.6054890  43.6075800
  65.5124550  11.8114270  44.2849220  65.2311770  10.8443290  43.1546650
  66.1414410   9.6087240  42.3253250  66.7836640   8.9080400  42.4385420
  66.6663760  10.3885680  42.1450140  69.9870130   9.8935860  32.0492390
  69.7607710   9.1766300  32.6417030  69.5966330   9.6448300  31.2114140
  67.9152030  10.4082140  45.5289310  68.2508270  10.9948830  46.2067230
  66.9952370  10.2774850  45.7587100  55.7686160  13.9202720  32.8236850
  56.1283800  14.5192060  32.1694120  55.6278500  14.4662610  33.5971880
  55.7528020  12.1857580  47.2979250  55.8619140  11.2452320  47.1574640
  55.1008580  12.4512330  46.6492980  63.7440610  10.4573470  48.6977370
  63.4237480   9.7382710  49.2423060  63.0698970  11.1328540  48.7713430
  61.7854780  11.3033920  33.6410520  61.7764880  12.0363610  33.0255030
  60.8653140  11.0565500  33.7337480  57.3861420   6.5248810  34.3857280
  56.7789370   7.2647710  34.3952580  57.8610770   6.6148170  33.5595480
  64.7714380  11.3662160  32.3035710  64.8726360  11.1626150  31.3737690
  63.8716120  11.1120440  32.5083490  63.9196200   3.3439220  44.2852140
  64.4181450   3.8185040  44.9503990  64.0619150   2.4202740  44.4922170
  63.4132490  13.8848480  36.9983380  63.6673990  13.8469870  36.0762750
  62.4644970  13.7581810  36.9911630  69.4185070   4.8040360  38.5741890
  68.4775210   4.8190590  38.7489580  69.7329140   4.0176320  39.0202190
  59.3966710   6.4859960  32.1345850  60.1629980   6.3741320  32.6971280
  59.4741400   5.7897930  31.4822620  58.0913470   3.9185030  32.8178740
  58.1717060   2.9712540  32.9296140  58.9833220   4.2491910  32.9239400
  58.8928180  14.0680420  39.9213280  59.6290660  13.5195880  40.1921850
  59.2769100  14.9336430  39.7819270  55.7773660  10.1353990  35.7954790
  54.8513440  10.3775130  35.7860200  56.2430090  10.9628250  35.6739540
  57.8986460  13.2526490  49.1098860  58.6999190  13.5738540  49.5234260
  57.3838280  12.8922070  49.8318770  62.0030490  13.2410730  31.7438850
  62.7959100  13.5299560  31.2920640  61.4834840  12.8102900  31.0651330
  66.7351090   9.3606360  49.0574270  66.1289250   9.3837960  48.3170020
  66.4305200   8.6289400  49.5941520  68.1651460  13.0886650  47.6683680
  69.1173210  13.0044670  47.6183920  68.0179680  13.7528360  48.3417470
  55.6184270   5.7399950  48.0534910  56.1223290   5.1607230  48.6251140
  54.8791690   6.0240180  48.5911280  62.5207890   8.4614140  31.6081200
  62.4158530   7.8466490  32.3342580  62.3532110   7.9380030  30.8244210
  62.6722210   7.1470940  47.5870430  61.9067880   7.7155940  47.5025100
  62.8538170   6.8547150  46.6938660  65.7610620   7.5234170  32.2123190
  65.2120720   7.9703470  32.8565930  66.3829880   7.0183420  32.7360860
  57.6507350   3.8829540  48.9484980  57.6912690   3.5843410  49.8570210
  58.5052850   4.2837150  48.7892500  61.4285740   6.4825090  34.1088490
  61.8502160   6.3164960  34.9519880  61.5536580   5.6725320  33.6143630
  59.5913160   2.4621640  46.9159470  59.0609620   1.9712590  46.2882810
  60.2601230   2.8905840  46.3817400  63.9413380   5.5062700  31.3565590
  64.4619040   4.7911720  30.9906740  64.5881780   6.1448570  31.6566100
  68.4891220   6.9291100  46.6800660  68.9032240   7.0836180  47.5291080
  67.5542220   7.0546320  46.8426440  68.9613390   4.2687260  48.6839810
  69.5434160   3.5139580  48.5960290  69.1375160   4.7994700  47.9071290
  63.2506450   6.8811580  44.6496590  63.6694560   7.7244310  44.4772830
  62.3315080   7.0183620  44.4203370  65.5870350   4.6127760  46.0334430
  65.7066560   4.0168900  46.7729270  66.4464350   4.6497450  45.6135730
  67.9258250   5.1664950  44.6096940  67.3993470   5.6907570  44.0062080
  68.2689590   5.7992340  45.2406670  60.3244640   2.5558320  31.0546650
  60.1233700   1.6925680  31.4159990  60.1536690   2.4691680  30.1168250
  61.1013870  13.1864590  45.7654320  60.5634960  13.9110650  45.4463020
  61.3547830  12.7094930  44.9751660  63.9576080  14.4215800  46.0240970
  63.8834780  15.3250940  46.3313340  63.0554920  14.1027700  45.9963040
  64.5061410  13.5874310  33.6467330  65.4012200  13.9259280  33.6686090
  64.5379040  12.8653720  33.0191610  58.1457570   8.9601360  31.8754330
  58.5832440   9.5031030  32.5311910  58.6305300   8.1348310  31.8850670
  55.3603370  11.7490390  39.3274590  55.6906380  10.8811450  39.0953230
  55.7894370  11.9548910  40.1579550  59.9565290  10.0799400  36.9876560
  59.6560830   9.9564370  37.8880470  59.8502780   9.2207990  36.5792290
  55.8493580  12.6160980  42.0656220  55.4124570  12.7961780  42.8980370
  56.4171260  13.3735600  41.9237940  55.6818010   5.1281210  38.4245100
  55.0266850   4.8592850  37.7804800  56.5195960   5.0185690  37.9747080
  56.7193940   5.5133780  42.9648440  57.0866980   5.4261180  43.8444460
  56.1504760   4.7500330  42.8655300  56.2709940   2.4242870  46.8706860
  55.3765990   2.3909630  47.2100570  56.8107490   2.6229660  47.6358110
  54.8956090   2.3380140  34.3670430  53.9920170   2.6010340  34.1922090
  55.3796710   2.6091310  33.5870390  58.1346020  10.0266470  48.1268590
  58.0915650   9.6559380  49.0083050  58.2657030  10.9644040  48.2670410
  61.8352050  11.5826060  43.7278310  61.5943410  11.8500620  42.8408830
  62.7754690  11.7531790  43.7829170  57.9734050  12.9728720  45.2466370
  57.3794370  12.8413420  45.9856410  57.9657890  12.1366860  44.7808470
  57.6046280  10.3387100  44.1974410  56.8780340   9.7192390  44.1300360
  57.6655430  10.7327710  43.3272490  61.2091380  12.5532100  40.9823820
  61.7256400  11.9419460  40.4572080  61.8588760  13.0560880  41.4734830
  63.9486880  13.4440590  41.8092800  64.2364690  13.1894890  40.9325810
  64.4610100  12.8917950  42.3998370  55.8876280  13.6561490  37.4071170
  55.7198320  13.0232170  38.1053060  55.0210790  13.8620890  37.0565360
  57.4938980  12.3494720  34.8521310  56.9686600  12.7302750  34.1483270
  57.4183560  12.9745490  35.5731020  64.0159240  14.3656690  49.1761000
  64.9426550  14.1300960  49.2196960  64.0009670  15.1928690  48.6947030
  60.0931950  14.2977100  33.7270560  60.8250770  14.0136380  33.1794450
  60.3525620  14.0590380  34.6169940  59.2546740  10.4141830  33.7316890
  58.6255620  10.8826930  34.2802720  59.3694570   9.5691050  34.1663080
  66.7096460   4.4647490  19.8818090  66.6290510   3.5502100  19.6109800
  66.2960880   4.9614560  19.1757800  64.8414500   6.2426510  21.7627360
  64.0656600   5.7626950  22.0525930  65.4927430   5.5632160  21.5883520
  58.8580330   6.5546320  22.6403120  58.0265210   6.2995030  23.0399630
  59.4661310   6.6257090  23.3761040  68.8621930  10.6486700  20.5426490
  68.4003460   9.8773940  20.8713660  69.6747480  10.6752770  21.0478940
  58.8381590  10.5886410  22.8361140  59.1409630   9.6984150  22.6571360
  59.5825180  11.1456630  22.6083390  55.2305290   4.1153860  22.3085210
  55.8021400   3.3476060  22.3088850  55.2306830   4.4142620  21.3991820
  65.0885240  12.9344710  20.1630480  64.4696680  13.3902210  19.5924920
  65.9437020  13.0896170  19.7620180  64.2823490   8.9183700  21.7697520
  64.2131770   7.9773640  21.6086650  65.0443350   9.0085110  22.3420090
  61.2841400   3.0666080  21.7909070  61.7919620   3.5647050  22.4314090
  61.8154640   2.2901280  21.6148430  65.9548590   7.8183950  17.5562390
  65.3365860   8.2833400  16.9925110  66.4671840   8.5111430  17.9731900
  60.8180350   7.3459820  24.2345990  60.4849730   7.9728740  24.8767060
  60.9947030   7.8721700  23.4547660  60.0299450   9.3140620  26.0495170
  60.6473450   9.9891700  25.7679620  59.1692570   9.7228600  25.9582670
  55.3231790   8.5040480  14.9302020  54.9459770   8.9927580  14.1986920
  55.5804860   9.1765760  15.5608550  68.4835780  12.6224160  22.6794990
  68.4962940  12.2186450  21.8117250  67.9311000  13.3971450  22.5756420
  69.7781200   9.3440380  17.7685160  69.6677530   8.4014710  17.8934580
  69.7749450   9.7056020  18.6547920  67.8821220   7.5254000  24.0077600
  68.2990010   7.3114110  23.1731060  68.6061040   7.7826790  24.5786220
  65.3201480   4.9705700  17.1247650  64.3930760   4.9043080  17.3536120
  65.4726300   5.9085830  17.0102890  69.3498770   6.5326000  17.6282900
  68.7311190   6.1945550  16.9809200  69.3323220   5.8885760  18.3362090
  68.7925330   2.7110540  25.0448710  68.3796510   3.5364250  25.2988700
  68.0601280   2.1255580  24.8525070  60.9258120   5.4970440  19.9067380
  60.5215120   4.7847690  19.4113280  61.0121240   5.1523680  20.7955420
  61.3939820   9.1838000  22.0706590  61.0968110   8.5783470  21.3914370
  62.3439640   9.2215310  21.9595950  59.6386740   2.2713650  23.6866420
  60.1901330   2.3808990  22.9119670  60.1530250   2.6451250  24.4021650
  69.4825430  12.7569870  25.7329690  69.0055990  13.5642060  25.5402300
  68.7987220  12.1048200  25.8855900  60.4858250   8.9219690  28.7214390
  59.5886780   9.1459660  28.9687790  60.5111120   9.0454630  27.7725790
  67.5263470   5.7712810  14.6355650  67.9656750   4.9335240  14.4893470
  68.2391890   6.4042210  14.7219790  59.3129470   5.7933010  27.2971760
  59.1737240   6.6655810  27.6659160  58.4310830   5.4505820  27.1519700
  65.6358850  10.7108880  18.6036890  66.0754760  11.4533210  18.1892280
  65.5745740  10.9535450  19.5275850  61.1109820  11.7354710  29.5056910
  61.0825250  12.1397660  28.6385340  60.9474790  10.8065070  29.3428510
  57.6262750   4.3915420  17.4074030  57.5060350   5.1177510  16.7955300
  57.3163640   3.6218330  16.9301940  55.2648120   7.5630560  23.2142670
  55.3428540   7.6979330  22.2698390  55.8789800   6.8546450  23.4070790
  56.5095750   9.2630750  19.6248850  56.1023830   9.4045340  18.7702450
  57.4008760   8.9790910  19.4220060  66.3274630  13.4122660  26.5315900
  66.8419300  13.3230670  27.3338330  65.4843710  13.7582360  26.8243810
  68.3029030  13.6978000  15.9599900  68.1430170  13.4080940  16.8581730
  68.1375740  12.9218130  15.4245130  60.7817410  13.4776530  17.7371520
  60.6059890  12.5612070  17.5239320  59.9273150  13.8363820  17.9769320
  68.0055160  11.2065560  14.5197900  67.3120320  11.2042850  13.8600180
  68.7478020  10.7824880  14.0892070  67.5705090  12.8328270  18.5946390
  68.0262040  12.0517650  18.9085010  67.9097610  13.5435090  19.1387570
  55.3207640   8.6044730  25.7537130  55.4838680   8.1350090  24.9356500
  55.7860090   8.0968290  26.4185970  66.4750440   3.3229710  29.6228470
  66.8003850   2.4893460  29.2830700  67.2630770   3.8458230  29.7706800
  59.8840630   2.8584060  18.5178950  59.6581550   2.6421230  19.4225570
  59.1033160   3.2912520  18.1724920  67.1138390   2.8647430  17.1169600
  66.5147280   3.5883230  16.9333220  67.6618000   2.8024210  16.3346050
  62.3239840   3.7569640  29.1839220  62.2283440   2.8164370  29.0339620
  63.1671820   3.9784710  28.7887290  54.9437660   2.0331890  12.5805800
  54.8612330   2.9762650  12.7220790  54.5920720   1.8906800  11.7018150
  66.3058400   4.0916720  23.2423660  65.5739520   4.6003530  23.5913760
  65.9082740   3.2746700  22.9412440  62.8055940   1.7683000  14.6382910
  62.9268760   1.7269480  15.5868730  62.4204450   2.6307150  14.4829640
  61.8177440   4.0784140  14.0366210  61.2494340   3.6302390  13.4102120
  62.5266440   4.4376920  13.5031360  56.8946620   7.9796160  27.9132940
  56.5101410   7.3389830  28.5115900  57.2058810   8.6832280  28.4827670
  63.0443760   4.8272700  23.3941560  63.4113890   4.3531270  24.1402900
  62.8548820   5.7014270  23.7349900  60.8343130   3.8681340  25.7125770
  60.5300200   4.7473320  25.9376130  61.7889590   3.9281130  25.7483210
  59.3624920   8.0742330  16.3092620  58.5887180   7.5339950  16.1491340
  60.0919550   7.5548940  15.9710380  65.5031700   7.1416750  27.9888010
  65.4369010   6.2212420  27.7345600  64.8736840   7.2392190  28.7032650
  68.2971230   2.8365300  14.5410560  69.1850850   3.1482530  14.3661900
  68.2676320   1.9637550  14.1491140  59.4062320   7.7422710  19.9471430
  59.9240990   6.9390970  19.8928320  58.9546340   7.6801850  20.7888260
  64.2931820   9.0088990  15.2198730  64.6347520   9.7531220  14.7242050
  63.4644530   9.3220110  15.5823560  56.8906860   4.7084080  26.8597130
  56.5321800   5.3737930  27.4470470  56.5961420   3.8767630  27.2309750
  60.0919980   5.1668320  29.7436680  59.7920120   5.3125500  28.8464500
  60.8631220   4.6073610  29.6510070  65.4348430   9.9637320  27.7391810
  65.4492970   9.0318280  27.5210720  64.7273530  10.0497080  28.3781580
  67.1759230   8.3304830  20.5844240  67.5283050   7.7332960  19.9245610
  66.2921560   8.0049060  20.7552490  63.2622510   9.0902520  17.9914650
  63.9493640   9.6371730  18.3722240  62.4754930   9.6343250  18.0264260
  55.4014910   4.7075340  13.4831730  56.2709760   4.9900140  13.7667650
  54.9105230   5.5211210  13.3680540  62.5649720   6.0948550  17.6040010
  63.0212500   6.9053800  17.8300200  62.2137930   5.7771690  18.4358500
  64.8682330  11.6054890  24.8332310  65.5124550  11.8114270  25.5105730
  65.2311770  10.8443290  24.3803160  66.1414410   9.6087240  23.5509760
  66.7836640   8.9080400  23.6641930  66.6663760  10.3885680  23.3706650
  69.9870130   9.8935860  13.2748900  69.7607710   9.1766300  13.8673540
  69.5966330   9.6448300  12.4370650  67.9152030  10.4082140  26.7545820
  68.2508270  10.9948830  27.4323740  66.9952370  10.2774850  26.9843610
  55.7686160  13.9202720  14.0493360  56.1283800  14.5192060  13.3950630
  55.6278500  14.4662610  14.8228390  55.7528020  12.1857580  28.5235760
  55.8619140  11.2452320  28.3831150  55.1008580  12.4512330  27.8749490
  63.7440610  10.4573470  29.9233880  63.4237480   9.7382710  30.4679570
  63.0698970  11.1328540  29.9969940  61.7854780  11.3033920  14.8667030
  61.7764880  12.0363610  14.2511540  60.8653140  11.0565500  14.9593990
  57.3861420   6.5248810  15.6113790  56.7789370   7.2647710  15.6209090
  57.8610770   6.6148170  14.7851990  64.7714380  11.3662160  13.5292220
  64.8726360  11.1626150  12.5994200  63.8716120  11.1120440  13.7340000
  63.9196200   3.3439220  25.5108650  64.4181450   3.8185040  26.1760500
  64.0619150   2.4202740  25.7178680  63.4132490  13.8848480  18.2239890
  63.6673990  13.8469870  17.3019260  62.4644970  13.7581810  18.2168140
  69.4185070   4.8040360  19.7998400  68.4775210   4.8190590  19.9746090
  69.7329140   4.0176320  20.2458700  59.3966710   6.4859960  13.3602360
  60.1629980   6.3741320  13.9227790  59.4741400   5.7897930  12.7079130
  58.0913470   3.9185030  14.0435250  58.1717060   2.9712540  14.1552650
  58.9833220   4.2491910  14.1495910  58.8928180  14.0680420  21.1469790
  59.6290660  13.5195880  21.4178360  59.2769100  14.9336430  21.0075780
  55.7773660  10.1353990  17.0211300  54.8513440  10.3775130  17.0116710
  56.2430090  10.9628250  16.8996050  57.8986460  13.2526490  30.3355370
  58.6999190  13.5738540  30.7490770  57.3838280  12.8922070  31.0575280
  62.0030490  13.2410730  12.9695360  62.7959100  13.5299560  12.5177150
  61.4834840  12.8102900  12.2907840  66.7351090   9.3606360  30.2830780
  66.1289250   9.3837960  29.5426530  66.4305200   8.6289400  30.8198030
  68.1651460  13.0886650  28.8940190  69.1173210  13.0044670  28.8440430
  68.0179680  13.7528360  29.5673980  55.6184270   5.7399950  29.2791420
  56.1223290   5.1607230  29.8507650  54.8791690   6.0240180  29.8167790
  62.5207890   8.4614140  12.8337710  62.4158530   7.8466490  13.5599090
  62.3532110   7.9380030  12.0500720  62.6722210   7.1470940  28.8126940
  61.9067880   7.7155940  28.7281610  62.8538170   6.8547150  27.9195170
  65.7610620   7.5234170  13.4379700  65.2120720   7.9703470  14.0822440
  66.3829880   7.0183420  13.9617370  57.6507350   3.8829540  30.1741490
  57.6912690   3.5843410  31.0826720  58.5052850   4.2837150  30.0149010
  61.4285740   6.4825090  15.3345000  61.8502160   6.3164960  16.1776390
  61.5536580   5.6725320  14.8400140  59.5913160   2.4621640  28.1415980
  59.0609620   1.9712590  27.5139320  60.2601230   2.8905840  27.6073910
  63.9413380   5.5062700  12.5822100  64.4619040   4.7911720  12.2163250
  64.5881780   6.1448570  12.8822610  68.4891220   6.9291100  27.9057170
  68.9032240   7.0836180  28.7547590  67.5542220   7.0546320  28.0682950
  68.9613390   4.2687260  29.9096320  69.5434160   3.5139580  29.8216800
  69.1375160   4.7994700  29.1327800  63.2506450   6.8811580  25.8753100
  63.6694560   7.7244310  25.7029340  62.3315080   7.0183620  25.6459880
  65.5870350   4.6127760  27.2590940  65.7066560   4.0168900  27.9985780
  66.4464350   4.6497450  26.8392240  67.9258250   5.1664950  25.8353450
  67.3993470   5.6907570  25.2318590  68.2689590   5.7992340  26.4663180
  60.3244640   2.5558320  12.2803160  60.1233700   1.6925680  12.6416500
  60.1536690   2.4691680  11.3424760  61.1013870  13.1864590  26.9910830
  60.5634960  13.9110650  26.6719530  61.3547830  12.7094930  26.2008170
  63.9576080  14.4215800  27.2497480  63.8834780  15.3250940  27.5569850
  63.0554920  14.1027700  27.2219550  64.5061410  13.5874310  14.8723840
  65.4012200  13.9259280  14.8942600  64.5379040  12.8653720  14.2448120
  58.1457570   8.9601360  13.1010840  58.5832440   9.5031030  13.7568420
  58.6305300   8.1348310  13.1107180  55.3603370  11.7490390  20.5531100
  55.6906380  10.8811450  20.3209740  55.7894370  11.9548910  21.3836060
  59.9565290  10.0799400  18.2133070  59.6560830   9.9564370  19.1136980
  59.8502780   9.2207990  17.8048800  55.8493580  12.6160980  23.2912730
  55.4124570  12.7961780  24.1236880  56.4171260  13.3735600  23.1494450
  55.6818010   5.1281210  19.6501610  55.0266850   4.8592850  19.0061310
  56.5195960   5.0185690  19.2003590  56.7193940   5.5133780  24.1904950
  57.0866980   5.4261180  25.0700970  56.1504760   4.7500330  24.0911810
  56.2709940   2.4242870  28.0963370  55.3765990   2.3909630  28.4357080
  56.8107490   2.6229660  28.8614620  54.8956090   2.3380140  15.5926940
  53.9920170   2.6010340  15.4178600  55.3796710   2.6091310  14.8126900
  58.1346020  10.0266470  29.3525100  58.0915650   9.6559380  30.2339560
  58.2657030  10.9644040  29.4926920  61.8352050  11.5826060  24.9534820
  61.5943410  11.8500620  24.0665340  62.7754690  11.7531790  25.0085680
  57.9734050  12.9728720  26.4722880  57.3794370  12.8413420  27.2112920
  57.9657890  12.1366860  26.0064980  57.6046280  10.3387100  25.4230920
  56.8780340   9.7192390  25.3556870  57.6655430  10.7327710  24.5529000
  61.2091380  12.5532100  22.2080330  61.7256400  11.9419460  21.6828590
  61.8588760  13.0560880  22.6991340  63.9486880  13.4440590  23.0349310
  64.2364690  13.1894890  22.1582320  64.4610100  12.8917950  23.6254880
  55.8876280  13.6561490  18.6327680  55.7198320  13.0232170  19.3309570
  55.0210790  13.8620890  18.2821870  57.4938980  12.3494720  16.0777820
  56.9686600  12.7302750  15.3739780  57.4183560  12.9745490  16.7987530
  64.0159240  14.3656690  30.4017510  64.9426550  14.1300960  30.4453470
  64.0009670  15.1928690  29.9203540  60.0931950  14.2977100  14.9527070
  60.8250770  14.0136380  14.4050960  60.3525620  14.0590380  15.8426450
  59.2546740  10.4141830  14.9573400  58.6255620  10.8826930  15.5059230
  59.3694570   9.5691050  15.3919590  64.8414500   6.2426510   2.9883870
  64.0656600   5.7626950   3.2782440  65.4927430   5.5632160   2.8140030
  58.8580330   6.5546320   3.8659630  58.0265210   6.2995030   4.2656140
  59.4661310   6.6257090   4.6017550  68.8621930  10.6486700   1.7683000
  68.4003460   9.8773940   2.0970170  69.6747480  10.6752770   2.2735450
  58.8381590  10.5886410   4.0617650  59.1409630   9.6984150   3.8827870
  59.5825180  11.1456630   3.8339900  55.2305290   4.1153860   3.5341720
  55.8021400   3.3476060   3.5345360  55.2306830   4.4142620   2.6248330
  64.2823490   8.9183700   2.9954030  64.2131770   7.9773640   2.8343160
  65.0443350   9.0085110   3.5676600  61.2841400   3.0666080   3.0165580
  61.7919620   3.5647050   3.6570600  61.8154640   2.2901280   2.8404940
  60.8180350   7.3459820   5.4602500  60.4849730   7.9728740   6.1023570
  60.9947030   7.8721700   4.6804170  60.0299450   9.3140620   7.2751680
  60.6473450   9.9891700   6.9936130  59.1692570   9.7228600   7.1839180
  68.4835780  12.6224160   3.9051500  68.4962940  12.2186450   3.0373760
  67.9311000  13.3971450   3.8012930  67.8821220   7.5254000   5.2334110
  68.2990010   7.3114110   4.3987570  68.6061040   7.7826790   5.8042730
  68.7925330   2.7110540   6.2705220  68.3796510   3.5364250   6.5245210
  68.0601280   2.1255580   6.0781580  61.3939820   9.1838000   3.2963100
  61.0968110   8.5783470   2.6170880  62.3439640   9.2215310   3.1852460
  59.6386740   2.2713650   4.9122930  60.1901330   2.3808990   4.1376180
  60.1530250   2.6451250   5.6278160  69.4825430  12.7569870   6.9586200
  69.0055990  13.5642060   6.7658810  68.7987220  12.1048200   7.1112410
  60.4858250   8.9219690   9.9470900  59.5886780   9.1459660  10.1944300
  60.5111120   9.0454630   8.9982300  59.3129470   5.7933010   8.5228270
  59.1737240   6.6655810   8.8915670  58.4310830   5.4505820   8.3776210
  61.1109820  11.7354710  10.7313420  61.0825250  12.1397660   9.8641850
  60.9474790  10.8065070  10.5685020  55.2648120   7.5630560   4.4399180
  55.3428540   7.6979330   3.4954900  55.8789800   6.8546450   4.6327300
  66.3274630  13.4122660   7.7572410  66.8419300  13.3230670   8.5594840
  65.4843710  13.7582360   8.0500320  55.3207640   8.6044730   6.9793640
  55.4838680   8.1350090   6.1613010  55.7860090   8.0968290   7.6442480
  66.4750440   3.3229710  10.8484980  66.8003850   2.4893460  10.5087210
  67.2630770   3.8458230  10.9963310  62.3239840   3.7569640  10.4095730
  62.2283440   2.8164370  10.2596130  63.1671820   3.9784710  10.0143800
  66.3058400   4.0916720   4.4680170  65.5739520   4.6003530   4.8170270
  65.9082740   3.2746700   4.1668950  56.8946620   7.9796160   9.1389450
  56.5101410   7.3389830   9.7372410  57.2058810   8.6832280   9.7084180
  63.0443760   4.8272700   4.6198070  63.4113890   4.3531270   5.3659410
  62.8548820   5.7014270   4.9606410  60.8343130   3.8681340   6.9382280
  60.5300200   4.7473320   7.1632640  61.7889590   3.9281130   6.9739720
  65.5031700   7.1416750   9.2144520  65.4369010   6.2212420   8.9602110
  64.8736840   7.2392190   9.9289160  56.8906860   4.7084080   8.0853640
  56.5321800   5.3737930   8.6726980  56.5961420   3.8767630   8.4566260
  60.0919980   5.1668320  10.9693190  59.7920120   5.3125500  10.0721010
  60.8631220   4.6073610  10.8766580  65.4348430   9.9637320   8.9648320
  65.4492970   9.0318280   8.7467230  64.7273530  10.0497080   9.6038090
  64.8682330  11.6054890   6.0588820  65.5124550  11.8114270   6.7362240
  65.2311770  10.8443290   5.6059670  66.1414410   9.6087240   4.7766270
  66.7836640   8.9080400   4.8898440  66.6663760  10.3885680   4.5963160
  67.9152030  10.4082140   7.9802330  68.2508270  10.9948830   8.6580250
  66.9952370  10.2774850   8.2100120  55.7528020  12.1857580   9.7492270
  55.8619140  11.2452320   9.6087660  55.1008580  12.4512330   9.1006000
  63.7440610  10.4573470  11.1490390  63.4237480   9.7382710  11.6936080
  63.0698970  11.1328540  11.2226450  63.9196200   3.3439220   6.7365160
  64.4181450   3.8185040   7.4017010  64.0619150   2.4202740   6.9435190
  58.8928180  14.0680420   2.3726300  59.6290660  13.5195880   2.6434870
  59.2769100  14.9336430   2.2332290  57.8986460  13.2526490  11.5611880
  58.6999190  13.5738540  11.9747280  57.3838280  12.8922070  12.2831790
  66.7351090   9.3606360  11.5087290  66.1289250   9.3837960  10.7683040
  66.4305200   8.6289400  12.0454540  68.1651460  13.0886650  10.1196700
  69.1173210  13.0044670  10.0696940  68.0179680  13.7528360  10.7930490
  55.6184270   5.7399950  10.5047930  56.1223290   5.1607230  11.0764160
  54.8791690   6.0240180  11.0424300  62.6722210   7.1470940  10.0383450
  61.9067880   7.7155940   9.9538120  62.8538170   6.8547150   9.1451680
  57.6507350   3.8829540  11.3998000  57.6912690   3.5843410  12.3083230
  58.5052850   4.2837150  11.2405520  59.5913160   2.4621640   9.3672490
  59.0609620   1.9712590   8.7395830  60.2601230   2.8905840   8.8330420
  68.4891220   6.9291100   9.1313680  68.9032240   7.0836180   9.9804100
  67.5542220   7.0546320   9.2939460  68.9613390   4.2687260  11.1352830
  69.5434160   3.5139580  11.0473310  69.1375160   4.7994700  10.3584310
  63.2506450   6.8811580   7.1009610  63.6694560   7.7244310   6.9285850
  62.3315080   7.0183620   6.8716390  65.5870350   4.6127760   8.4847450
  65.7066560   4.0168900   9.2242290  66.4464350   4.6497450   8.0648750
  67.9258250   5.1664950   7.0609960  67.3993470   5.6907570   6.4575100
  68.2689590   5.7992340   7.6919690  61.1013870  13.1864590   8.2167340
  60.5634960  13.9110650   7.8976040  61.3547830  12.7094930   7.4264680
  63.9576080  14.4215800   8.4753990  63.8834780  15.3250940   8.7826360
  63.0554920  14.1027700   8.4476060  55.3603370  11.7490390   1.7787610
  55.6906380  10.8811450   1.5466250  55.7894370  11.9548910   2.6092570
  55.8493580  12.6160980   4.5169240  55.4124570  12.7961780   5.3493390
  56.4171260  13.3735600   4.3750960  56.7193940   5.5133780   5.4161460
  57.0866980   5.4261180   6.2957480  56.1504760   4.7500330   5.3168320
  56.2709940   2.4242870   9.3219880  55.3765990   2.3909630   9.6613590
  56.8107490   2.6229660  10.0871130  58.1346020  10.0266470  10.5781610
  58.0915650   9.6559380  11.4596070  58.2657030  10.9644040  10.7183430
  61.8352050  11.5826060   6.1791330  61.5943410  11.8500620   5.2921850
  62.7754690  11.7531790   6.2342190  57.9734050  12.9728720   7.6979390
  57.3794370  12.8413420   8.4369430  57.9657890  12.1366860   7.2321490
  57.6046280  10.3387100   6.6487430  56.8780340   9.7192390   6.5813380
  57.6655430  10.7327710   5.7785510  61.2091380  12.5532100   3.4336840
  61.7256400  11.9419460   2.9085100  61.8588760  13.0560880   3.9247850
  63.9486880  13.4440590   4.2605820  64.2364690  13.1894890   3.3838830
  64.4610100  12.8917950   4.8511390  64.0159240  14.3656690  11.6274020
  64.9426550  14.1300960  11.6709980  64.0009670  15.1928690  11.1460050
  47.9352970  60.7877960  57.4305070  47.8547020  59.8732570  57.1596780
  47.5217390  61.2845030  56.7244780  46.0671010  62.5656980  59.3114340
  45.2913110  62.0857420  59.6012910  46.7183940  61.8862630  59.1370500
  38.4928790  57.8378680  53.9732490  37.6045490  58.1794650  53.8712370
  38.7769980  57.6379000  53.0813320  36.4561800  60.4384330  59.8572190
  37.0277910  59.6706530  59.8575830  36.4563340  60.7373090  58.9478800
  46.5385170  58.0484550  59.5453430  46.9149990  57.1756430  59.4327100
  46.4404680  58.3843250  58.6543870  40.6690180  56.4210180  55.0070870
  40.7756930  57.3213910  55.3139630  39.7582540  56.3728150  54.7165520
  50.3209290  55.5434990  56.4781770  51.1418910  55.0531560  56.5207250
  50.3543370  56.1332650  57.2313610  42.5097910  59.3896550  59.3396050
  43.0176130  59.8877520  59.9801070  43.0411150  58.6131750  59.1635410
  47.1805100  64.1414420  55.1049370  46.5622370  64.6063870  54.5412090
  47.6928350  64.8341900  55.5218880  50.5570770  57.4835370  59.2509310
  49.8526340  57.7720260  59.8312420  50.9182930  58.2935480  58.8908870
  53.6257690  56.9290160  59.6418520  52.6782600  56.9629140  59.7733950
  53.9507680  57.7429110  60.0267880  44.1577230  53.2287340  57.9374510
  44.4652210  52.6734230  57.2210010  43.2277930  53.3631800  57.7547500
  46.5457990  61.2936170  54.6734630  45.6187270  61.2273550  54.9023100
  46.6982810  62.2316300  54.5589870  46.5327070  57.5653170  51.6701790
  45.5930740  57.7267130  51.7554250  46.8510330  58.2838850  51.1237780
  50.5755280  62.8556470  55.1769880  49.9567700  62.5176020  54.5296180
  50.5579730  62.2116230  55.8849070  42.1514630  61.8200910  57.4554360
  41.7471630  61.1078160  56.9600260  42.2377750  61.4754150  58.3442400
  48.7519980  62.0943280  52.1842630  49.1913260  61.2565710  52.0380450
  49.4648400  62.7272680  52.2706770  52.3337120  53.3486090  50.4983670
  52.0209780  53.4412920  51.3982740  53.0949590  53.9267120  50.4481100
  38.8519260  60.7145890  54.9561010  38.7316860  61.4407980  54.3442280
  38.5420150  59.9448800  54.4788920  41.3182920  54.0580960  58.3384680
  40.8751070  54.8390500  58.0069200  41.8767910  54.3810850  59.0455620
  44.4341740  53.6791660  53.2190510  43.8095920  53.6751530  53.9443820
  44.3471860  52.8122620  52.8226480  43.3558820  54.6028290  60.1974280
  43.6531150  55.5091120  60.1166300  43.9044380  54.1147070  59.5833850
  41.1097140  59.1814530  56.0665930  40.8838060  58.9651700  56.9712550
  40.3289670  59.6142990  55.7211900  48.3394900  59.1877900  54.6656580
  47.7403790  59.9113700  54.4820200  48.8874510  59.1254680  53.8833030
  46.9459770  57.8241440  56.6959860  47.3389340  58.1413640  55.8828550
  47.3076620  56.9453320  56.8104380  35.9823940  54.4142240  58.9190060
  35.6936990  54.9845100  59.6315040  36.7269700  53.9346690  59.2821290
  36.1694170  58.3562360  50.1292780  36.0868840  59.2993120  50.2707770
  35.8177230  58.2137270  49.2505130  43.9692300  57.0901390  59.1963130
  43.9728360  56.6491340  58.3467670  44.8643420  57.4118720  59.3034950
  39.8194680  56.9727880  58.1557340  39.4794730  57.4503110  58.9124390
  39.0572000  56.5193000  57.7958440  44.0312450  58.0913470  52.1869890
  44.1525270  58.0499950  53.1355710  43.6460960  58.9537620  52.0316620
  43.0433950  60.4014610  51.5853190  42.4750850  59.9532860  50.9589100
  43.7522950  60.7607390  51.0518340  37.1340760  55.8946860  57.0722010
  36.8487680  55.5302530  57.9100630  37.0719620  55.1627320  56.4585150
  40.5881430  64.3972800  53.8579600  39.8143690  63.8570420  53.6978320
  41.3176060  63.8779410  53.5197360  51.3469410  63.3938160  59.6505990
  52.0668530  63.8893450  59.2602100  51.1451230  62.7156050  59.0059860
  46.8079350  54.7876120  53.7935380  45.9943960  54.2889290  53.7180690
  46.6141300  55.6274370  53.3771730  49.5227740  59.1595770  52.0897540
  50.4107360  59.4713000  51.9148880  49.4932830  58.2868020  51.6978120
  40.6318830  64.0653180  57.4958410  41.1497500  63.2621440  57.4415300
  40.1802850  64.0032320  58.3375240  51.7942010  60.4707610  51.5577400
  51.7105730  60.9021830  50.7073840  52.5136200  60.9305960  51.9904220
  48.4015740  64.6535300  58.1331220  48.7539560  64.0563430  57.4732590
  47.5178070  64.3279530  58.3039470  36.6271420  61.0305810  51.0318710
  37.4966270  61.3130610  51.3154630  36.1361740  61.8441680  50.9167520
  43.7906230  62.4179020  55.1526990  44.2469010  63.2284270  55.3787180
  43.4394440  62.1002160  55.9845480  39.6918010  52.7616670  55.6249510
  39.5632640  52.7534570  56.5734430  38.8680030  53.0999760  55.2740520
  50.7942890  64.1338270  52.4850040  50.5064590  64.5950960  53.2727920
  51.5895060  63.6736040  52.7534260  38.6117930  62.8479280  53.1600770
  38.0045880  63.5878180  53.1696070  39.0867280  62.9378640  52.3338970
  51.5512750  55.9687040  53.6445220  50.9225910  56.0732710  52.9303450
  51.0564670  56.1883820  54.4339100  43.5196780  58.2472990  55.0603100
  42.8112930  58.7159330  55.5016710  43.8041260  57.5895000  55.6948290
  47.5512210  54.9723650  56.4998890  47.4279990  54.9909780  55.5508400
  48.4996770  55.0202590  56.6197290  41.7231800  56.5558070  52.4353810
  42.5722330  56.9928220  52.3694000  41.3563070  56.8678330  53.2625870
  50.6441580  61.1270830  57.3485380  49.7031720  61.1421060  57.5233070
  50.9585650  60.3406790  57.7945680  40.6223220  62.8090430  50.9089340
  41.3886490  62.6971790  51.4714770  40.6997910  62.1128400  50.2566110
  39.3169980  60.2415500  51.5922230  39.3973570  59.2943010  51.7039630
  40.2089730  60.5722380  51.6982890  43.7464400  64.7844610  50.3824690
  43.6415040  64.1696960  51.1086070  43.5788620  64.2610500  49.5987700
  46.9867130  63.8464640  50.9866680  46.4377230  64.2933940  51.6309420
  47.6086390  63.3413890  51.5104350  42.6542250  62.8055560  52.8831980
  43.0758670  62.6395430  53.7263370  42.7793090  61.9955790  52.3887120
  45.1669890  61.8293170  50.1309080  45.6875550  61.1142190  49.7650230
  45.8138290  62.4679040  50.4309590  41.5501150  58.8788790  49.8290140
  41.3490210  58.0156150  50.1903480  41.3793200  58.7922150  48.8911740
  49.0289460  53.6897020  52.3577020  49.3091750  52.8464920  52.7136440
  48.2555190  53.9220130  52.8715770  40.3483950  55.9789410  49.8168020
  40.6509850  55.9856840  48.9087170  41.0878540  55.6287270  50.3135680
  43.5668880  54.9224030  50.8024220  43.2190880  54.2448020  50.2226670
  43.7681650  54.4613540  51.6167610  53.4070180  62.9273750  52.9680930
  54.1689090  63.4970400  53.0740620  53.4224550  62.3600950  53.7389240
  36.9074520  61.4511680  57.1988590  36.2523360  61.1823320  56.5548290
  37.7452470  61.3416160  56.7490570  54.4130150  63.7823850  57.8122860
  54.7838980  62.9991170  57.4058830  55.0532080  64.4712950  57.6340160
  53.4589350  63.2208120  50.1253450  53.7338190  64.1287000  49.9972670
  53.2700090  63.1570650  51.0615440  49.8564960  56.2452970  51.4207080
  50.2749840  56.0583950  50.5803740  49.5501020  55.3932020  51.7310010
  53.3554690  61.1577110  55.1182880  52.9798290  60.3905040  54.6864170
  52.6257810  61.5399810  55.6057810  36.1212600  58.6610610  53.1413920
  35.2176680  58.9240810  52.9665580  36.6053220  58.9321780  52.3613880
  52.6305650  59.3834600  58.4190120  53.1543130  58.8897250  57.7880290
  53.2165070  59.5184960  59.1637690  38.6639810  57.7176150  51.0508300
  39.3731510  57.2959370  50.5655580  37.9479750  57.7851380  50.4191650
  38.3113970  53.7715480  50.0910950  39.0342100  54.3124420  50.4092170
  38.5838490  53.4978900  49.2152490  52.1205620  58.6407950  54.3582530
  52.6164740  58.4078820  55.1431410  51.9221690  57.8019790  53.9420170
  53.5492780  57.2768900  56.8920210  53.4392060  57.1224940  57.8302480
  54.3100370  56.7489840  56.6495620  54.4383050  55.1076820  50.1326350
  55.3632360  54.9758000  49.9244640  54.4158840  55.1869640  51.0862800
  54.5121540  55.8787480  52.7583060  53.7173040  55.8132600  53.2875970
  54.7164820  56.8138120  52.7468410  50.9441470  54.2084360  59.2081890
  51.3849560  54.1529460  58.3603490  50.6749060  55.1242370  59.2792070
  52.8080040  53.8399600  57.2190710  52.7468440  52.8960820  57.0721730
  53.5872070  53.9479690  57.7644170  37.7360810  53.8108740  53.6846520
  38.4940170  53.9237620  53.1110550  37.2737980  54.6477940  53.6389950
  44.2774620  55.9248010  56.6748830  43.4649130  55.5504900  56.3344710
  44.7816260  55.1693090  56.9770020  48.7799600  52.5890460  57.9131900
  49.3828970  53.1610670  58.3880420  48.0392590  53.1529900  57.6905800
  51.9234200  52.9912020  53.1872180  52.1184830  53.8895470  53.4539610
  51.1364070  52.7599100  53.6805130  40.1085960  54.3372790  52.2248490
  40.6378720  53.5502590  52.0956440  40.7414280  55.0163980  52.4584020
  42.3023800  54.0747930  55.2793880  41.6726540  53.3735240  55.4464010
  41.7628940  54.8352060  55.0627040  47.9352970  60.7877960  38.6561580
  47.8547020  59.8732570  38.3853290  47.5217390  61.2845030  37.9501290
  46.0671010  62.5656980  40.5370850  45.2913110  62.0857420  40.8269420
  46.7183940  61.8862630  40.3627010  40.0836840  62.8776790  41.4146610
  39.2521720  62.6225500  41.8143120  40.6917820  62.9487560  42.1504530
  38.4928790  57.8378680  35.1989000  37.6045490  58.1794650  35.0968880
  38.7769980  57.6379000  34.3069830  36.4561800  60.4384330  41.0828700
  37.0277910  59.6706530  41.0832340  36.4563340  60.7373090  40.1735310
  37.6986670  55.8468690  42.8697630  37.5189510  54.9494440  43.1500390
  37.2966750  56.3940560  43.5444580  46.5385170  58.0484550  40.7709940
  46.9149990  57.1756430  40.6583610  46.4404680  58.3843250  39.8800380
  40.6690180  56.4210180  36.2327380  40.7756930  57.3213910  36.5396140
  39.7582540  56.3728150  35.9422030  50.3209290  55.5434990  37.7038280
  51.1418910  55.0531560  37.7463760  50.3543370  56.1332650  38.4570120
  38.3173340  58.3429190  41.4779970  38.9983450  58.6067560  42.0967370
  38.0021390  57.5030060  41.8117980  42.5097910  59.3896550  40.5652560
  43.0176130  59.8877520  41.2057580  43.0411150  58.6131750  40.3891920
  54.6108840  57.5601740  44.2681910  53.9061010  57.9483450  43.7497020
  54.8766760  58.2552030  44.8702840  40.7934010  54.0295110  44.8315980
  40.7952450  54.5467500  44.0261880  39.9638320  53.5525290  44.8085910
  47.1805100  64.1414420  36.3305880  46.5622370  64.6063870  35.7668600
  47.6928350  64.8341900  36.7475390  42.0436860  63.6690290  43.0089480
  41.7106240  64.2959210  43.6510550  42.2203540  64.1952170  42.2291150
  50.5570770  57.4835370  40.4765820  49.8526340  57.7720260  41.0568930
  50.9182930  58.2935480  40.1165380  40.4749340  55.7405070  42.8386430
  40.8166150  56.5847120  42.5440300  39.5365150  55.8888810  42.9551770
  53.6257690  56.9290160  40.8675030  52.6782600  56.9629140  40.9990460
  53.9507680  57.7429110  41.2524390  44.1577230  53.2287340  39.1631020
  44.4652210  52.6734230  38.4466520  43.2277930  53.3631800  38.9804010
  49.1077730  63.8484470  42.7821090  49.5246520  63.6344580  41.9474550
  49.8317550  64.1057260  43.3529710  46.5457990  61.2936170  35.8991140
  45.6187270  61.2273550  36.1279610  46.6982810  62.2316300  35.7846380
  46.5327070  57.5653170  32.8958300  45.5930740  57.7267130  32.9810760
  46.8510330  58.2838850  32.3494290  53.0539830  62.2471690  42.8737330
  52.2258460  62.3164780  42.3987460  53.6490310  62.8326000  42.4053160
  50.5755280  62.8556470  36.4026390  49.9567700  62.5176020  35.7552690
  50.5579730  62.2116230  37.1105580  50.0181840  59.0341010  43.8192200
  49.6053020  59.8594720  44.0732190  49.2857790  58.4486050  43.6268560
  42.1514630  61.8200910  38.6810870  41.7471630  61.1078160  38.1856770
  42.2377750  61.4754150  39.5698910  40.8643250  58.5944120  42.4609910
  41.4157840  58.7039460  41.6863160  41.3786760  58.9681720  43.1765140
  48.7519980  62.0943280  33.4099140  49.1913260  61.2565710  33.2636960
  49.4648400  62.7272680  33.4963280  40.5385980  62.1163480  46.0715250
  40.3993750  62.9886280  46.4402650  39.6567340  61.7736290  45.9263190
  52.3337120  53.3486090  31.7240180  52.0209780  53.4412920  32.6239250
  53.0949590  53.9267120  31.6737610  38.8519260  60.7145890  36.1817520
  38.7316860  61.4407980  35.5698790  38.5420150  59.9448800  35.7045430
  36.4904630  63.8861030  41.9886160  36.5685050  64.0209800  41.0441880
  37.1046310  63.1776920  42.1814280  53.5438410  58.0857590  47.7014320
  52.9282680  58.5937260  47.1729780  53.2234830  57.1855920  47.6440260
  36.5464150  64.9275200  44.5280620  36.7095190  64.4580560  43.7099990
  37.0116600  64.4198760  45.1929460  41.3182920  54.0580960  39.5641190
  40.8751070  54.8390500  39.2325710  41.8767910  54.3810850  40.2712130
  45.6052730  56.9249480  45.1676510  45.1432100  57.1332500  45.9796450
  45.2030840  56.1108830  44.8647180  50.6057240  58.1458430  46.2973170
  49.7550830  57.8464180  46.6182240  50.4459030  58.3900440  45.3856990
  47.7006950  59.6460180  48.3971960  48.0260360  58.8123930  48.0574190
  48.4887280  60.1688700  48.5450290  44.4341740  53.6791660  34.4447020
  43.8095920  53.6751530  35.1700330  44.3471860  52.8122620  34.0482990
  43.3558820  54.6028290  41.4230790  43.6531150  55.5091120  41.3422810
  43.9044380  54.1147070  40.8090360  41.1097140  59.1814530  37.2922440
  40.8838060  58.9651700  38.1969060  40.3289670  59.6142990  36.9468410
  48.3394900  59.1877900  35.8913090  47.7403790  59.9113700  35.7076710
  48.8874510  59.1254680  35.1089540  43.5496350  60.0800110  47.9582710
  43.4539950  59.1394840  47.8083110  44.3928330  60.3015180  47.5630780
  46.9459770  57.8241440  37.9216370  47.3389340  58.1413640  37.1085060
  47.3076620  56.9453320  38.0360890  38.6806890  56.4913780  46.1116490
  38.2870280  57.3388990  46.3189270  37.9925290  55.8540150  46.3025130
  45.2551940  56.5748750  49.1813230  44.5650260  56.3820950  49.8159320
  45.9984240  56.8583390  49.7137530  35.9823940  54.4142240  40.1446570
  35.6936990  54.9845100  40.8571550  36.7269700  53.9346690  40.5077800
  36.1694170  58.3562360  31.3549290  36.0868840  59.2993120  31.4964280
  35.8177230  58.2137270  30.4761640  47.5314910  60.4147190  42.0167150
  46.7996030  60.9234000  42.3657250  47.1339250  59.5977170  41.7155930
  43.9692300  57.0901390  40.4219640  43.9728360  56.6491340  39.5724180
  44.8643420  57.4118720  40.5291460  39.8194680  56.9727880  39.3813850
  39.4794730  57.4503110  40.1380900  39.0572000  56.5193000  39.0214950
  44.0312450  58.0913470  33.4126400  44.1525270  58.0499950  34.3612220
  43.6460960  58.9537620  33.2573130  47.9940820  55.8680870  41.4290090
  48.0113560  56.3189520  42.2731940  47.7456400  54.9686510  41.6423530
  43.0433950  60.4014610  32.8109700  42.4750850  59.9532860  32.1845610
  43.7522950  60.7607390  32.2774850  51.4211570  53.2813050  47.2676470
  51.7457340  52.5502710  47.7934450  51.4568080  52.9626690  46.3657460
  38.1203130  64.3026630  46.6876430  37.7357920  63.6620300  47.2859390
  38.4315320  65.0062750  47.2571160  44.2700270  61.1503170  42.1685050
  44.6370400  60.6761740  42.9146390  44.0805330  62.0244740  42.5093390
  37.1340760  55.8946860  38.2978520  36.8487680  55.5302530  39.1357140
  37.0719620  55.1627320  37.6841660  42.0599640  60.1911810  44.4869260
  41.7556710  61.0703790  44.7119620  43.0146100  60.2511600  44.5226700
  40.5881430  64.3972800  35.0836110  39.8143690  63.8570420  34.9234830
  41.3176060  63.8779410  34.7453870  51.3469410  63.3938160  40.8762500
  52.0668530  63.8893450  40.4858610  51.1451230  62.7156050  40.2316370
  46.8079350  54.7876120  35.0191890  45.9943960  54.2889290  34.9437200
  46.6141300  55.6274370  34.6028240  46.7288210  63.4647220  46.7631500
  46.6625520  62.5442890  46.5089090  46.0993350  63.5622660  47.4776140
  49.5227740  59.1595770  33.3154050  50.4107360  59.4713000  33.1405390
  49.4932830  58.2868020  32.9234630  40.6318830  64.0653180  38.7214920
  41.1497500  63.2621440  38.6671810  40.1802850  64.0032320  39.5631750
  38.1163370  61.0314550  45.6340620  37.7578310  61.6968400  46.2213960
  37.8217930  60.1998100  46.0053240  41.3176490  61.4898790  48.5180170
  41.0176630  61.6355970  47.6207990  42.0887730  60.9304080  48.4253560
  51.7942010  60.4707610  32.7833910  51.7105730  60.9021830  31.9330350
  52.5136200  60.9305960  33.2160730  52.8716150  62.9275130  45.8603880
  52.1464340  63.5203910  45.6633270  53.3991610  62.9198670  45.0617250
  48.4015740  64.6535300  39.3587730  48.7539560  64.0563430  38.6989100
  47.5178070  64.3279530  39.5295980  36.6271420  61.0305810  32.2575220
  37.4966270  61.3130610  32.5411140  36.1361740  61.8441680  32.1424030
  43.7906230  62.4179020  36.3783500  44.2469010  63.2284270  36.6043690
  43.4394440  62.1002160  37.2101990  39.6918010  52.7616670  36.8506020
  39.5632640  52.7534570  37.7990940  38.8680030  53.0999760  36.4997030
  36.6911940  54.5207790  46.3112720  35.9770460  54.7204710  46.9165330
  37.1106980  53.7447360  46.6827520  50.7942890  64.1338270  33.7106550
  50.5064590  64.5950960  34.4984430  51.5895060  63.6736040  33.9790770
  38.6117930  62.8479280  34.3857280  38.0045880  63.5878180  34.3952580
  39.0867280  62.9378640  33.5595480  48.1850720  57.0130100  44.0614170
  48.5531540  56.1925310  44.3893740  47.3248920  57.0731990  44.4769820
  51.5512750  55.9687040  34.8701730  50.9225910  56.0732710  34.1559960
  51.0564670  56.1883820  35.6595610  43.5196780  58.2472990  36.2859610
  42.8112930  58.7159330  36.7273220  43.8041260  57.5895000  36.9204800
  45.1452710  59.6669690  44.2852140  45.6437960  60.1415510  44.9503990
  45.2875660  58.7433210  44.4922170  47.5512210  54.9723650  37.7255400
  47.4279990  54.9909780  36.7764910  48.4996770  55.0202590  37.8453800
  41.7231800  56.5558070  33.6610320  42.5722330  56.9928220  33.5950510
  41.3563070  56.8678330  34.4882380  52.3519570  55.8837650  45.1280530
  51.8493170  56.6243050  45.4674340  53.1676230  56.2721650  44.8117320
  50.6441580  61.1270830  38.5741890  49.7031720  61.1421060  38.7489580
  50.9585650  60.3406790  39.0202190  40.6223220  62.8090430  32.1345850
  41.3886490  62.6971790  32.6971280  40.6997910  62.1128400  31.4822620
  39.3169980  60.2415500  32.8178740  39.3973570  59.2943010  32.9296140
  40.2089730  60.5722380  32.9239400  36.8440780  62.0630420  48.0534910
  37.3479800  61.4837700  48.6251140  36.1048200  62.3470650  48.5911280
  43.7464400  64.7844610  31.6081200  43.6415040  64.1696960  32.3342580
  43.5788620  64.2610500  30.8244210  43.8978720  63.4701410  47.5870430
  43.1324390  64.0386410  47.5025100  44.0794680  63.1777620  46.6938660
  46.9867130  63.8464640  32.2123190  46.4377230  64.2933940  32.8565930
  47.6086390  63.3413890  32.7360860  38.8763860  60.2060010  48.9484980
  38.9169200  59.9073880  49.8570210  39.7309360  60.6067620  48.7892500
  42.6542250  62.8055560  34.1088490  43.0758670  62.6395430  34.9519880
  42.7793090  61.9955790  33.6143630  40.8169670  58.7852110  46.9159470
  40.2866130  58.2943060  46.2882810  41.4857740  59.2136310  46.3817400
  45.1669890  61.8293170  31.3565590  45.6875550  61.1142190  30.9906740
  45.8138290  62.4679040  31.6566100  49.7147730  63.2521570  46.6800660
  50.1288750  63.4066650  47.5291080  48.7798730  63.3776790  46.8426440
  50.1869900  60.5917730  48.6839810  50.7690670  59.8370050  48.5960290
  50.3631670  61.1225170  47.9071290  41.3041970  55.7514480  46.9956760
  41.2098840  55.1335230  46.2707630  40.7239360  56.4780770  46.7686670
  44.0703410  54.3087720  44.0284150  43.6220710  54.3311980  43.1829700
  43.4368610  53.9106740  44.6254450  44.4762960  63.2042050  44.6496590
  44.8951070  64.0474780  44.4772830  43.5571590  63.3414090  44.4203370
  46.8126860  60.9358230  46.0334430  46.9323070  60.3399370  46.7729270
  47.6720860  60.9727920  45.6135730  49.1514760  61.4895420  44.6096940
  48.6249980  62.0138040  44.0062080  49.4946100  62.1222810  45.2406670
  41.5501150  58.8788790  31.0546650  41.3490210  58.0156150  31.4159990
  41.3793200  58.7922150  30.1168250  43.5795630  57.4779580  47.2910250
  44.1695320  57.1695430  47.9788070  42.7615870  57.0059330  47.4470150
  48.3989060  57.0945390  47.5243270  47.7104580  56.4326930  47.4593260
  49.1195080  56.6483660  47.9691730  49.0289460  53.6897020  33.5833530
  49.3091750  52.8464920  33.9392950  48.2555190  53.9220130  34.0972280
  40.3483950  55.9789410  31.0424530  40.6509850  55.9856840  30.1343680
  41.0878540  55.6287270  31.5392190  43.5668880  54.9224030  32.0280730
  43.2190880  54.2448020  31.4483180  43.7681650  54.4613540  32.8424120
  53.4070180  62.9273750  34.1937440  54.1689090  63.4970400  34.2997130
  53.4224550  62.3600950  34.9645750  36.9074520  61.4511680  38.4245100
  36.2523360  61.1823320  37.7804800  37.7452470  61.3416160  37.9747080
  54.4130150  63.7823850  39.0379370  54.7838980  62.9991170  38.6315340
  55.0532080  64.4712950  38.8596670  53.4589350  63.2208120  31.3509960
  53.7338190  64.1287000  31.2229180  53.2700090  63.1570650  32.2871950
  49.8564960  56.2452970  32.6463590  50.2749840  56.0583950  31.8060250
  49.5501020  55.3932020  32.9566520  53.3554690  61.1577110  36.3439390
  52.9798290  60.3905040  35.9120680  52.6257810  61.5399810  36.8314320
  37.9450450  61.8364250  42.9648440  38.3123490  61.7491650  43.8444460
  37.3761270  61.0730800  42.8655300  52.7454310  60.3048630  45.9778910
  52.5140400  60.0761380  45.0776860  53.0058860  61.2248180  45.9323800
  37.4966450  58.7473340  46.8706860  36.6022500  58.7140100  47.2100570
  38.0364000  58.9460130  47.6358110  51.1842380  55.5305060  48.7558610
  52.0612560  55.5388460  49.1392610  51.1963220  54.7935900  48.1450960
  36.1212600  58.6610610  34.3670430  35.2176680  58.9240810  34.1922090
  36.6053220  58.9321780  33.5870390  52.6305650  59.3834600  39.6446630
  53.1543130  58.8897250  39.0136800  53.2165070  59.5184960  40.3894200
  52.8095370  59.4674470  43.1666180  51.8598080  59.4338010  43.2811170
  52.9908380  60.3774580  42.9315950  38.6639810  57.7176150  32.2764810
  39.3731510  57.2959370  31.7912090  37.9479750  57.7851380  31.6448160
  38.3113970  53.7715480  31.3167460  39.0342100  54.3124420  31.6348680
  38.5838490  53.4978900  30.4409000  52.1205620  58.6407950  35.5839040
  52.6164740  58.4078820  36.3687920  51.9221690  57.8019790  35.1676680
  38.0006160  53.0221670  41.2190080  38.6482350  52.4719050  40.7785240
  38.4208000  53.2764820  42.0405890  53.5492780  57.2768900  38.1176720
  53.4392060  57.1224940  39.0558990  54.3100370  56.7489840  37.8752130
  51.8958500  53.2163030  44.5759720  52.5330720  53.8297170  44.9418910
  52.0433390  53.2523690  43.6308950  54.4383050  55.1076820  31.3582860
  55.3632360  54.9758000  31.1501150  54.4158840  55.1869640  32.3119310
  54.5121540  55.8787480  33.9839570  53.7173040  55.8132600  34.5132480
  54.7164820  56.8138120  33.9724920  37.7538160  53.1777340  43.9615400
  37.4052980  53.6341160  44.7273580  37.4225860  52.2834470  44.0437830
  45.2662980  54.3689220  47.4834820  45.2051870  54.9611050  48.2330230
  46.2063360  54.2615180  47.3385080  47.9037540  54.0259280  47.1227110
  48.5177950  54.3438570  46.4608190  48.4487100  53.5407870  47.7422970
  38.4258800  52.7053540  47.2366170  38.9741790  52.5241590  46.4732280
  38.4914110  51.9147650  47.7722480  48.6445580  52.5891420  43.4496400
  47.7705420  52.9226530  43.2469330  48.5356330  52.1164600  44.2748270
  49.5517560  54.7962290  44.8338120  49.2230920  53.9814050  44.4539850
  50.4999860  54.7532100  44.7103810  46.3920400  53.5061260  42.3889310
  45.6092190  53.9806760  42.6686070  46.0983330  52.6016090  42.2802490
  50.9441470  54.2084360  40.4338400  51.3849560  54.1529460  39.5860000
  50.6749060  55.1242370  40.5048580  52.8080040  53.8399600  38.4447220
  52.7468440  52.8960820  38.2978240  53.5872070  53.9479690  38.9900680
  37.7360810  53.8108740  34.9103030  38.4940170  53.9237620  34.3367060
  37.2737980  54.6477940  34.8646460  44.2774620  55.9248010  37.9005340
  43.4649130  55.5504900  37.5601220  44.7816260  55.1693090  38.2026530
  48.7799600  52.5890460  39.1388410  49.3828970  53.1610670  39.6136930
  48.0392590  53.1529900  38.9162310  51.9234200  52.9912020  34.4128690
  52.1184830  53.8895470  34.6796120  51.1364070  52.7599100  34.9061640
  40.1085960  54.3372790  33.4505000  40.6378720  53.5502590  33.3212950
  40.7414280  55.0163980  33.6840530  42.3023800  54.0747930  36.5050390
  41.6726540  53.3735240  36.6720520  41.7628940  54.8352060  36.2883550
  42.4279360  53.3531910  48.9402880  42.1463630  53.8565510  48.1763700
  42.8099060  52.5553660  48.5745010  49.0294820  52.7685490  49.5183350
  48.9160270  53.0880100  50.4134870  49.8464560  53.1698000  49.2220630
  47.9352970  60.7877960  19.8818090  47.8547020  59.8732570  19.6109800
  47.5217390  61.2845030  19.1757800  46.0671010  62.5656980  21.7627360
  45.2913110  62.0857420  22.0525930  46.7183940  61.8862630  21.5883520
  40.0836840  62.8776790  22.6403120  39.2521720  62.6225500  23.0399630
  40.6917820  62.9487560  23.3761040  38.4928790  57.8378680  16.4245510
  37.6045490  58.1794650  16.3225390  38.7769980  57.6379000  15.5326340
  36.4561800  60.4384330  22.3085210  37.0277910  59.6706530  22.3088850
  36.4563340  60.7373090  21.3991820  37.6986670  55.8468690  24.0954140
  37.5189510  54.9494440  24.3756900  37.2966750  56.3940560  24.7701090
  46.5385170  58.0484550  21.9966450  46.9149990  57.1756430  21.8840120
  46.4404680  58.3843250  21.1056890  40.6690180  56.4210180  17.4583890
  40.7756930  57.3213910  17.7652650  39.7582540  56.3728150  17.1678540
  50.3209290  55.5434990  18.9294790  51.1418910  55.0531560  18.9720270
  50.3543370  56.1332650  19.6826630  38.3173340  58.3429190  22.7036480
  38.9983450  58.6067560  23.3223880  38.0021390  57.5030060  23.0374490
  42.5097910  59.3896550  21.7909070  43.0176130  59.8877520  22.4314090
  43.0411150  58.6131750  21.6148430  54.6108840  57.5601740  25.4938420
  53.9061010  57.9483450  24.9753530  54.8766760  58.2552030  26.0959350
  40.7934010  54.0295110  26.0572490  40.7952450  54.5467500  25.2518390
  39.9638320  53.5525290  26.0342420  47.1805100  64.1414420  17.5562390
  46.5622370  64.6063870  16.9925110  47.6928350  64.8341900  17.9731900
  42.0436860  63.6690290  24.2345990  41.7106240  64.2959210  24.8767060
  42.2203540  64.1952170  23.4547660  50.5570770  57.4835370  21.7022330
  49.8526340  57.7720260  22.2825440  50.9182930  58.2935480  21.3421890
  40.4749340  55.7405070  24.0642940  40.8166150  56.5847120  23.7696810
  39.5365150  55.8888810  24.1808280  53.6257690  56.9290160  22.0931540
  52.6782600  56.9629140  22.2246970  53.9507680  57.7429110  22.4780900
  44.1577230  53.2287340  20.3887530  44.4652210  52.6734230  19.6723030
  43.2277930  53.3631800  20.2060520  49.1077730  63.8484470  24.0077600
  49.5246520  63.6344580  23.1731060  49.8317550  64.1057260  24.5786220
  46.5457990  61.2936170  17.1247650  45.6187270  61.2273550  17.3536120
  46.6982810  62.2316300  17.0102890  46.5327070  57.5653170  14.1214810
  45.5930740  57.7267130  14.2067270  46.8510330  58.2838850  13.5750800
  53.0539830  62.2471690  24.0993840  52.2258460  62.3164780  23.6243970
  53.6490310  62.8326000  23.6309670  50.5755280  62.8556470  17.6282900
  49.9567700  62.5176020  16.9809200  50.5579730  62.2116230  18.3362090
  50.0181840  59.0341010  25.0448710  49.6053020  59.8594720  25.2988700
  49.2857790  58.4486050  24.8525070  42.1514630  61.8200910  19.9067380
  41.7471630  61.1078160  19.4113280  42.2377750  61.4754150  20.7955420
  40.8643250  58.5944120  23.6866420  41.4157840  58.7039460  22.9119670
  41.3786760  58.9681720  24.4021650  48.7519980  62.0943280  14.6355650
  49.1913260  61.2565710  14.4893470  49.4648400  62.7272680  14.7219790
  40.5385980  62.1163480  27.2971760  40.3993750  62.9886280  27.6659160
  39.6567340  61.7736290  27.1519700  52.3337120  53.3486090  12.9496690
  52.0209780  53.4412920  13.8495760  53.0949590  53.9267120  12.8994120
  38.8519260  60.7145890  17.4074030  38.7316860  61.4407980  16.7955300
  38.5420150  59.9448800  16.9301940  36.4904630  63.8861030  23.2142670
  36.5685050  64.0209800  22.2698390  37.1046310  63.1776920  23.4070790
  53.5438410  58.0857590  28.9270830  52.9282680  58.5937260  28.3986290
  53.2234830  57.1855920  28.8696770  36.5464150  64.9275200  25.7537130
  36.7095190  64.4580560  24.9356500  37.0116600  64.4198760  26.4185970
  41.3182920  54.0580960  20.7897700  40.8751070  54.8390500  20.4582220
  41.8767910  54.3810850  21.4968640  45.6052730  56.9249480  26.3933020
  45.1432100  57.1332500  27.2052960  45.2030840  56.1108830  26.0903690
  50.6057240  58.1458430  27.5229680  49.7550830  57.8464180  27.8438750
  50.4459030  58.3900440  26.6113500  47.7006950  59.6460180  29.6228470
  48.0260360  58.8123930  29.2830700  48.4887280  60.1688700  29.7706800
  44.4341740  53.6791660  15.6703530  43.8095920  53.6751530  16.3956840
  44.3471860  52.8122620  15.2739500  43.3558820  54.6028290  22.6487300
  43.6531150  55.5091120  22.5679320  43.9044380  54.1147070  22.0346870
  41.1097140  59.1814530  18.5178950  40.8838060  58.9651700  19.4225570
  40.3289670  59.6142990  18.1724920  48.3394900  59.1877900  17.1169600
  47.7403790  59.9113700  16.9333220  48.8874510  59.1254680  16.3346050
  43.5496350  60.0800110  29.1839220  43.4539950  59.1394840  29.0339620
  44.3928330  60.3015180  28.7887290  46.9459770  57.8241440  19.1472880
  47.3389340  58.1413640  18.3341570  47.3076620  56.9453320  19.2617400
  38.6806890  56.4913780  27.3373000  38.2870280  57.3388990  27.5445780
  37.9925290  55.8540150  27.5281640  45.2551940  56.5748750  30.4069740
  44.5650260  56.3820950  31.0415830  45.9984240  56.8583390  30.9394040
  35.9823940  54.4142240  21.3703080  35.6936990  54.9845100  22.0828060
  36.7269700  53.9346690  21.7334310  36.1694170  58.3562360  12.5805800
  36.0868840  59.2993120  12.7220790  35.8177230  58.2137270  11.7018150
  47.5314910  60.4147190  23.2423660  46.7996030  60.9234000  23.5913760
  47.1339250  59.5977170  22.9412440  43.9692300  57.0901390  21.6476150
  43.9728360  56.6491340  20.7980690  44.8643420  57.4118720  21.7547970
  39.8194680  56.9727880  20.6070360  39.4794730  57.4503110  21.3637410
  39.0572000  56.5193000  20.2471460  44.0312450  58.0913470  14.6382910
  44.1525270  58.0499950  15.5868730  43.6460960  58.9537620  14.4829640
  47.9940820  55.8680870  22.6546600  48.0113560  56.3189520  23.4988450
  47.7456400  54.9686510  22.8680040  43.0433950  60.4014610  14.0366210
  42.4750850  59.9532860  13.4102120  43.7522950  60.7607390  13.5031360
  51.4211570  53.2813050  28.4932980  51.7457340  52.5502710  29.0190960
  51.4568080  52.9626690  27.5913970  38.1203130  64.3026630  27.9132940
  37.7357920  63.6620300  28.5115900  38.4315320  65.0062750  28.4827670
  44.2700270  61.1503170  23.3941560  44.6370400  60.6761740  24.1402900
  44.0805330  62.0244740  23.7349900  37.1340760  55.8946860  19.5235030
  36.8487680  55.5302530  20.3613650  37.0719620  55.1627320  18.9098170
  42.0599640  60.1911810  25.7125770  41.7556710  61.0703790  25.9376130
  43.0146100  60.2511600  25.7483210  40.5881430  64.3972800  16.3092620
  39.8143690  63.8570420  16.1491340  41.3176060  63.8779410  15.9710380
  51.3469410  63.3938160  22.1019010  52.0668530  63.8893450  21.7115120
  51.1451230  62.7156050  21.4572880  46.8079350  54.7876120  16.2448400
  45.9943960  54.2889290  16.1693710  46.6141300  55.6274370  15.8284750
  46.7288210  63.4647220  27.9888010  46.6625520  62.5442890  27.7345600
  46.0993350  63.5622660  28.7032650  49.5227740  59.1595770  14.5410560
  50.4107360  59.4713000  14.3661900  49.4932830  58.2868020  14.1491140
  40.6318830  64.0653180  19.9471430  41.1497500  63.2621440  19.8928320
  40.1802850  64.0032320  20.7888260  38.1163370  61.0314550  26.8597130
  37.7578310  61.6968400  27.4470470  37.8217930  60.1998100  27.2309750
  41.3176490  61.4898790  29.7436680  41.0176630  61.6355970  28.8464500
  42.0887730  60.9304080  29.6510070  51.7942010  60.4707610  14.0090420
  51.7105730  60.9021830  13.1586860  52.5136200  60.9305960  14.4417240
  52.8716150  62.9275130  27.0860390  52.1464340  63.5203910  26.8889780
  53.3991610  62.9198670  26.2873760  48.4015740  64.6535300  20.5844240
  48.7539560  64.0563430  19.9245610  47.5178070  64.3279530  20.7552490
  36.6271420  61.0305810  13.4831730  37.4966270  61.3130610  13.7667650
  36.1361740  61.8441680  13.3680540  43.7906230  62.4179020  17.6040010
  44.2469010  63.2284270  17.8300200  43.4394440  62.1002160  18.4358500
  39.6918010  52.7616670  18.0762530  39.5632640  52.7534570  19.0247450
  38.8680030  53.0999760  17.7253540  36.6911940  54.5207790  27.5369230
  35.9770460  54.7204710  28.1421840  37.1106980  53.7447360  27.9084030
  50.7942890  64.1338270  14.9363060  50.5064590  64.5950960  15.7240940
  51.5895060  63.6736040  15.2047280  38.6117930  62.8479280  15.6113790
  38.0045880  63.5878180  15.6209090  39.0867280  62.9378640  14.7851990
  48.1850720  57.0130100  25.2870680  48.5531540  56.1925310  25.6150250
  47.3248920  57.0731990  25.7026330  51.5512750  55.9687040  16.0958240
  50.9225910  56.0732710  15.3816470  51.0564670  56.1883820  16.8852120
  43.5196780  58.2472990  17.5116120  42.8112930  58.7159330  17.9529730
  43.8041260  57.5895000  18.1461310  45.1452710  59.6669690  25.5108650
  45.6437960  60.1415510  26.1760500  45.2875660  58.7433210  25.7178680
  47.5512210  54.9723650  18.9511910  47.4279990  54.9909780  18.0021420
  48.4996770  55.0202590  19.0710310  41.7231800  56.5558070  14.8866830
  42.5722330  56.9928220  14.8207020  41.3563070  56.8678330  15.7138890
  52.3519570  55.8837650  26.3537040  51.8493170  56.6243050  26.6930850
  53.1676230  56.2721650  26.0373830  50.6441580  61.1270830  19.7998400
  49.7031720  61.1421060  19.9746090  50.9585650  60.3406790  20.2458700
  40.6223220  62.8090430  13.3602360  41.3886490  62.6971790  13.9227790
  40.6997910  62.1128400  12.7079130  39.3169980  60.2415500  14.0435250
  39.3973570  59.2943010  14.1552650  40.2089730  60.5722380  14.1495910
  36.8440780  62.0630420  29.2791420  37.3479800  61.4837700  29.8507650
  36.1048200  62.3470650  29.8167790  43.7464400  64.7844610  12.8337710
  43.6415040  64.1696960  13.5599090  43.5788620  64.2610500  12.0500720
  43.8978720  63.4701410  28.8126940  43.1324390  64.0386410  28.7281610
  44.0794680  63.1777620  27.9195170  46.9867130  63.8464640  13.4379700
  46.4377230  64.2933940  14.0822440  47.6086390  63.3413890  13.9617370
  38.8763860  60.2060010  30.1741490  38.9169200  59.9073880  31.0826720
  39.7309360  60.6067620  30.0149010  42.6542250  62.8055560  15.3345000
  43.0758670  62.6395430  16.1776390  42.7793090  61.9955790  14.8400140
  40.8169670  58.7852110  28.1415980  40.2866130  58.2943060  27.5139320
  41.4857740  59.2136310  27.6073910  45.1669890  61.8293170  12.5822100
  45.6875550  61.1142190  12.2163250  45.8138290  62.4679040  12.8822610
  49.7147730  63.2521570  27.9057170  50.1288750  63.4066650  28.7547590
  48.7798730  63.3776790  28.0682950  50.1869900  60.5917730  29.9096320
  50.7690670  59.8370050  29.8216800  50.3631670  61.1225170  29.1327800
  41.3041970  55.7514480  28.2213270  41.2098840  55.1335230  27.4964140
  40.7239360  56.4780770  27.9943180  44.0703410  54.3087720  25.2540660
  43.6220710  54.3311980  24.4086210  43.4368610  53.9106740  25.8510960
  44.4762960  63.2042050  25.8753100  44.8951070  64.0474780  25.7029340
  43.5571590  63.3414090  25.6459880  46.8126860  60.9358230  27.2590940
  46.9323070  60.3399370  27.9985780  47.6720860  60.9727920  26.8392240
  49.1514760  61.4895420  25.8353450  48.6249980  62.0138040  25.2318590
  49.4946100  62.1222810  26.4663180  41.5501150  58.8788790  12.2803160
  41.3490210  58.0156150  12.6416500  41.3793200  58.7922150  11.3424760
  43.5795630  57.4779580  28.5166760  44.1695320  57.1695430  29.2044580
  42.7615870  57.0059330  28.6726660  48.3989060  57.0945390  28.7499780
  47.7104580  56.4326930  28.6849770  49.1195080  56.6483660  29.1948240
  49.0289460  53.6897020  14.8090040  49.3091750  52.8464920  15.1649460
  48.2555190  53.9220130  15.3228790  40.3483950  55.9789410  12.2681040
  40.6509850  55.9856840  11.3600190  41.0878540  55.6287270  12.7648700
  43.5668880  54.9224030  13.2537240  43.2190880  54.2448020  12.6739690
  43.7681650  54.4613540  14.0680630  53.4070180  62.9273750  15.4193950
  54.1689090  63.4970400  15.5253640  53.4224550  62.3600950  16.1902260
  36.9074520  61.4511680  19.6501610  36.2523360  61.1823320  19.0061310
  37.7452470  61.3416160  19.2003590  54.4130150  63.7823850  20.2635880
  54.7838980  62.9991170  19.8571850  55.0532080  64.4712950  20.0853180
  53.4589350  63.2208120  12.5766470  53.7338190  64.1287000  12.4485690
  53.2700090  63.1570650  13.5128460  49.8564960  56.2452970  13.8720100
  50.2749840  56.0583950  13.0316760  49.5501020  55.3932020  14.1823030
  53.3554690  61.1577110  17.5695900  52.9798290  60.3905040  17.1377190
  52.6257810  61.5399810  18.0570830  37.9450450  61.8364250  24.1904950
  38.3123490  61.7491650  25.0700970  37.3761270  61.0730800  24.0911810
  52.7454310  60.3048630  27.2035420  52.5140400  60.0761380  26.3033370
  53.0058860  61.2248180  27.1580310  37.4966450  58.7473340  28.0963370
  36.6022500  58.7140100  28.4357080  38.0364000  58.9460130  28.8614620
  51.1842380  55.5305060  29.9815120  52.0612560  55.5388460  30.3649120
  51.1963220  54.7935900  29.3707470  36.1212600  58.6610610  15.5926940
  35.2176680  58.9240810  15.4178600  36.6053220  58.9321780  14.8126900
  52.6305650  59.3834600  20.8703140  53.1543130  58.8897250  20.2393310
  53.2165070  59.5184960  21.6150710  52.8095370  59.4674470  24.3922690
  51.8598080  59.4338010  24.5067680  52.9908380  60.3774580  24.1572460
  38.6639810  57.7176150  13.5021320  39.3731510  57.2959370  13.0168600
  37.9479750  57.7851380  12.8704670  38.3113970  53.7715480  12.5423970
  39.0342100  54.3124420  12.8605190  38.5838490  53.4978900  11.6665510
  52.1205620  58.6407950  16.8095550  52.6164740  58.4078820  17.5944430
  51.9221690  57.8019790  16.3933190  38.0006160  53.0221670  22.4446590
  38.6482350  52.4719050  22.0041750  38.4208000  53.2764820  23.2662400
  53.5492780  57.2768900  19.3433230  53.4392060  57.1224940  20.2815500
  54.3100370  56.7489840  19.1008640  51.8958500  53.2163030  25.8016230
  52.5330720  53.8297170  26.1675420  52.0433390  53.2523690  24.8565460
  54.4383050  55.1076820  12.5839370  55.3632360  54.9758000  12.3757660
  54.4158840  55.1869640  13.5375820  54.5121540  55.8787480  15.2096080
  53.7173040  55.8132600  15.7388990  54.7164820  56.8138120  15.1981430
  37.7538160  53.1777340  25.1871910  37.4052980  53.6341160  25.9530090
  37.4225860  52.2834470  25.2694340  45.2662980  54.3689220  28.7091330
  45.2051870  54.9611050  29.4586740  46.2063360  54.2615180  28.5641590
  47.9037540  54.0259280  28.3483620  48.5177950  54.3438570  27.6864700
  48.4487100  53.5407870  28.9679480  38.4258800  52.7053540  28.4622680
  38.9741790  52.5241590  27.6988790  38.4914110  51.9147650  28.9978990
  48.6445580  52.5891420  24.6752910  47.7705420  52.9226530  24.4725840
  48.5356330  52.1164600  25.5004780  49.5517560  54.7962290  26.0594630
  49.2230920  53.9814050  25.6796360  50.4999860  54.7532100  25.9360320
  46.3920400  53.5061260  23.6145820  45.6092190  53.9806760  23.8942580
  46.0983330  52.6016090  23.5059000  50.9441470  54.2084360  21.6594910
  51.3849560  54.1529460  20.8116510  50.6749060  55.1242370  21.7305090
  52.8080040  53.8399600  19.6703730  52.7468440  52.8960820  19.5234750
  53.5872070  53.9479690  20.2157190  37.7360810  53.8108740  16.1359540
  38.4940170  53.9237620  15.5623570  37.2737980  54.6477940  16.0902970
  44.2774620  55.9248010  19.1261850  43.4649130  55.5504900  18.7857730
  44.7816260  55.1693090  19.4283040  48.7799600  52.5890460  20.3644920
  49.3828970  53.1610670  20.8393440  48.0392590  53.1529900  20.1418820
  51.9234200  52.9912020  15.6385200  52.1184830  53.8895470  15.9052630
  51.1364070  52.7599100  16.1318150  40.1085960  54.3372790  14.6761510
  40.6378720  53.5502590  14.5469460  40.7414280  55.0163980  14.9097040
  42.3023800  54.0747930  17.7306900  41.6726540  53.3735240  17.8977030
  41.7628940  54.8352060  17.5140060  42.4279360  53.3531910  30.1659390
  42.1463630  53.8565510  29.4020210  42.8099060  52.5553660  29.8001520
  49.0294820  52.7685490  30.7439860  48.9160270  53.0880100  31.6391380
  49.8464560  53.1698000  30.4477140  46.0671010  62.5656980   2.9883870
  45.2913110  62.0857420   3.2782440  46.7183940  61.8862630   2.8140030
  40.0836840  62.8776790   3.8659630  39.2521720  62.6225500   4.2656140
  40.6917820  62.9487560   4.6017550  36.4561800  60.4384330   3.5341720
  37.0277910  59.6706530   3.5345360  36.4563340  60.7373090   2.6248330
  37.6986670  55.8468690   5.3210650  37.5189510  54.9494440   5.6013410
  37.2966750  56.3940560   5.9957600  46.5385170  58.0484550   3.2222960
  46.9149990  57.1756430   3.1096630  46.4404680  58.3843250   2.3313400
  38.3173340  58.3429190   3.9292990  38.9983450  58.6067560   4.5480390
  38.0021390  57.5030060   4.2631000  42.5097910  59.3896550   3.0165580
  43.0176130  59.8877520   3.6570600  43.0411150  58.6131750   2.8404940
  54.6108840  57.5601740   6.7194930  53.9061010  57.9483450   6.2010040
  54.8766760  58.2552030   7.3215860  40.7934010  54.0295110   7.2829000
  40.7952450  54.5467500   6.4774900  39.9638320  53.5525290   7.2598930
  42.0436860  63.6690290   5.4602500  41.7106240  64.2959210   6.1023570
  42.2203540  64.1952170   4.6804170  50.5570770  57.4835370   2.9278840
  49.8526340  57.7720260   3.5081950  50.9182930  58.2935480   2.5678400
  40.4749340  55.7405070   5.2899450  40.8166150  56.5847120   4.9953320
  39.5365150  55.8888810   5.4064790  53.6257690  56.9290160   3.3188050
  52.6782600  56.9629140   3.4503480  53.9507680  57.7429110   3.7037410
  49.1077730  63.8484470   5.2334110  49.5246520  63.6344580   4.3987570
  49.8317550  64.1057260   5.8042730  53.0539830  62.2471690   5.3250350
  52.2258460  62.3164780   4.8500480  53.6490310  62.8326000   4.8566180
  50.0181840  59.0341010   6.2705220  49.6053020  59.8594720   6.5245210
  49.2857790  58.4486050   6.0781580  40.8643250  58.5944120   4.9122930
  41.4157840  58.7039460   4.1376180  41.3786760  58.9681720   5.6278160
  40.5385980  62.1163480   8.5228270  40.3993750  62.9886280   8.8915670
  39.6567340  61.7736290   8.3776210  36.4904630  63.8861030   4.4399180
  36.5685050  64.0209800   3.4954900  37.1046310  63.1776920   4.6327300
  53.5438410  58.0857590  10.1527340  52.9282680  58.5937260   9.6242800
  53.2234830  57.1855920  10.0953280  36.5464150  64.9275200   6.9793640
  36.7095190  64.4580560   6.1613010  37.0116600  64.4198760   7.6442480
  41.3182920  54.0580960   2.0154210  40.8751070  54.8390500   1.6838730
  41.8767910  54.3810850   2.7225150  45.6052730  56.9249480   7.6189530
  45.1432100  57.1332500   8.4309470  45.2030840  56.1108830   7.3160200
  50.6057240  58.1458430   8.7486190  49.7550830  57.8464180   9.0695260
  50.4459030  58.3900440   7.8370010  47.7006950  59.6460180  10.8484980
  48.0260360  58.8123930  10.5087210  48.4887280  60.1688700  10.9963310
  43.3558820  54.6028290   3.8743810  43.6531150  55.5091120   3.7935830
  43.9044380  54.1147070   3.2603380  43.5496350  60.0800110  10.4095730
  43.4539950  59.1394840  10.2596130  44.3928330  60.3015180  10.0143800
  38.6806890  56.4913780   8.5629510  38.2870280  57.3388990   8.7702290
  37.9925290  55.8540150   8.7538150  45.2551940  56.5748750  11.6326250
  44.5650260  56.3820950  12.2672340  45.9984240  56.8583390  12.1650550
  35.9823940  54.4142240   2.5959590  35.6936990  54.9845100   3.3084570
  36.7269700  53.9346690   2.9590820  47.5314910  60.4147190   4.4680170
  46.7996030  60.9234000   4.8170270  47.1339250  59.5977170   4.1668950
  43.9692300  57.0901390   2.8732660  43.9728360  56.6491340   2.0237200
  44.8643420  57.4118720   2.9804480  39.8194680  56.9727880   1.8326870
  39.4794730  57.4503110   2.5893920  39.0572000  56.5193000   1.4727970
  47.9940820  55.8680870   3.8803110  48.0113560  56.3189520   4.7244960
  47.7456400  54.9686510   4.0936550  51.4211570  53.2813050   9.7189490
  51.7457340  52.5502710  10.2447470  51.4568080  52.9626690   8.8170480
  38.1203130  64.3026630   9.1389450  37.7357920  63.6620300   9.7372410
  38.4315320  65.0062750   9.7084180  44.2700270  61.1503170   4.6198070
  44.6370400  60.6761740   5.3659410  44.0805330  62.0244740   4.9606410
  42.0599640  60.1911810   6.9382280  41.7556710  61.0703790   7.1632640
  43.0146100  60.2511600   6.9739720  51.3469410  63.3938160   3.3275520
  52.0668530  63.8893450   2.9371630  51.1451230  62.7156050   2.6829390
  46.7288210  63.4647220   9.2144520  46.6625520  62.5442890   8.9602110
  46.0993350  63.5622660   9.9289160  38.1163370  61.0314550   8.0853640
  37.7578310  61.6968400   8.6726980  37.8217930  60.1998100   8.4566260
  41.3176490  61.4898790  10.9693190  41.0176630  61.6355970  10.0721010
  42.0887730  60.9304080  10.8766580  52.8716150  62.9275130   8.3116900
  52.1464340  63.5203910   8.1146290  53.3991610  62.9198670   7.5130270
  36.6911940  54.5207790   8.7625740  35.9770460  54.7204710   9.3678350
  37.1106980  53.7447360   9.1340540  48.1850720  57.0130100   6.5127190
  48.5531540  56.1925310   6.8406760  47.3248920  57.0731990   6.9282840
  45.1452710  59.6669690   6.7365160  45.6437960  60.1415510   7.4017010
  45.2875660  58.7433210   6.9435190  52.3519570  55.8837650   7.5793550
  51.8493170  56.6243050   7.9187360  53.1676230  56.2721650   7.2630340
  36.8440780  62.0630420  10.5047930  37.3479800  61.4837700  11.0764160
  36.1048200  62.3470650  11.0424300  43.8978720  63.4701410  10.0383450
  43.1324390  64.0386410   9.9538120  44.0794680  63.1777620   9.1451680
  38.8763860  60.2060010  11.3998000  38.9169200  59.9073880  12.3083230
  39.7309360  60.6067620  11.2405520  40.8169670  58.7852110   9.3672490
  40.2866130  58.2943060   8.7395830  41.4857740  59.2136310   8.8330420
  49.7147730  63.2521570   9.1313680  50.1288750  63.4066650   9.9804100
  48.7798730  63.3776790   9.2939460  50.1869900  60.5917730  11.1352830
  50.7690670  59.8370050  11.0473310  50.3631670  61.1225170  10.3584310
  41.3041970  55.7514480   9.4469780  41.2098840  55.1335230   8.7220650
  40.7239360  56.4780770   9.2199690  44.0703410  54.3087720   6.4797170
  43.6220710  54.3311980   5.6342720  43.4368610  53.9106740   7.0767470
  44.4762960  63.2042050   7.1009610  44.8951070  64.0474780   6.9285850
  43.5571590  63.3414090   6.8716390  46.8126860  60.9358230   8.4847450
  46.9323070  60.3399370   9.2242290  47.6720860  60.9727920   8.0648750
  49.1514760  61.4895420   7.0609960  48.6249980  62.0138040   6.4575100
  49.4946100  62.1222810   7.6919690  43.5795630  57.4779580   9.7423270
  44.1695320  57.1695430  10.4301090  42.7615870  57.0059330   9.8983170
  48.3989060  57.0945390   9.9756290  47.7104580  56.4326930   9.9106280
  49.1195080  56.6483660  10.4204750  37.9450450  61.8364250   5.4161460
  38.3123490  61.7491650   6.2957480  37.3761270  61.0730800   5.3168320
  52.7454310  60.3048630   8.4291930  52.5140400  60.0761380   7.5289880
  53.0058860  61.2248180   8.3836820  37.4966450  58.7473340   9.3219880
  36.6022500  58.7140100   9.6613590  38.0364000  58.9460130  10.0871130
  51.1842380  55.5305060  11.2071630  52.0612560  55.5388460  11.5905630
  51.1963220  54.7935900  10.5963980  52.6305650  59.3834600   2.0959650
  53.1543130  58.8897250   1.4649820  53.2165070  59.5184960   2.8407220
  52.8095370  59.4674470   5.6179200  51.8598080  59.4338010   5.7324190
  52.9908380  60.3774580   5.3828970  38.0006160  53.0221670   3.6703100
  38.6482350  52.4719050   3.2298260  38.4208000  53.2764820   4.4918910
  51.8958500  53.2163030   7.0272740  52.5330720  53.8297170   7.3931930
  52.0433390  53.2523690   6.0821970  37.7538160  53.1777340   6.4128420
  37.4052980  53.6341160   7.1786600  37.4225860  52.2834470   6.4950850
  45.2662980  54.3689220   9.9347840  45.2051870  54.9611050  10.6843250
  46.2063360  54.2615180   9.7898100  47.9037540  54.0259280   9.5740130
  48.5177950  54.3438570   8.9121210  48.4487100  53.5407870  10.1935990
  38.4258800  52.7053540   9.6879190  38.9741790  52.5241590   8.9245300
  38.4914110  51.9147650  10.2235500  48.6445580  52.5891420   5.9009420
  47.7705420  52.9226530   5.6982350  48.5356330  52.1164600   6.7261290
  49.5517560  54.7962290   7.2851140  49.2230920  53.9814050   6.9052870
  50.4999860  54.7532100   7.1616830  46.3920400  53.5061260   4.8402330
  45.6092190  53.9806760   5.1199090  46.0983330  52.6016090   4.7315510
  50.9441470  54.2084360   2.8851420  51.3849560  54.1529460   2.0373020
  50.6749060  55.1242370   2.9561600  42.4279360  53.3531910  11.3915900
  42.1463630  53.8565510  10.6276720  42.8099060  52.5553660  11.0258030
  49.0294820  52.7685490  11.9696370  48.9160270  53.0880100  12.8647890
  49.8464560  53.1698000  11.6733650  47.9352970  42.0134470  57.4305070
  47.8547020  41.0989080  57.1596780  47.5217390  42.5101540  56.7244780
  46.0671010  43.7913490  59.3114340  45.2913110  43.3113930  59.6012910
  46.7183940  43.1119140  59.1370500  50.0878440  48.1973680  58.0913470
  49.6259970  47.4260920  58.4200640  50.9003990  48.2239750  58.5965920
  38.4928790  39.0635190  53.9732490  37.6045490  39.4051160  53.8712370
  38.7769980  38.8635510  53.0813320  36.4561800  41.6640840  59.8572190
  37.0277910  40.8963040  59.8575830  36.4563340  41.9629600  58.9478800
  46.3141750  50.4831690  57.7117460  45.6953190  50.9389190  57.1411900
  47.1693530  50.6383150  57.3107160  45.5080000  46.4670680  59.3184500
  45.4388280  45.5260620  59.1573630  46.2699860  46.5572090  59.8907070
  46.5385170  39.2741060  59.5453430  46.9149990  38.4012940  59.4327100
  46.4404680  39.6099760  58.6543870  40.6690180  37.6466690  55.0070870
  40.7756930  38.5470420  55.3139630  39.7582540  37.5984660  54.7165520
  50.3209290  36.7691500  56.4781770  51.1418910  36.2788070  56.5207250
  50.3543370  37.3589160  57.2313610  42.5097910  40.6153060  59.3396050
  43.0176130  41.1134030  59.9801070  43.0411150  39.8388260  59.1635410
  47.1805100  45.3670930  55.1049370  46.5622370  45.8320380  54.5412090
  47.6928350  46.0598410  55.5218880  50.5570770  38.7091880  59.2509310
  49.8526340  38.9976770  59.8312420  50.9182930  39.5191990  58.8908870
  36.5488300  46.0527460  52.4789000  36.1716280  46.5414560  51.7473900
  36.8061370  46.7252740  53.1095530  53.6257690  38.1546670  59.6418520
  52.6782600  38.1885650  59.7733950  53.9507680  38.9685620  60.0267880
  44.1577230  34.4543850  57.9374510  44.4652210  33.8990740  57.2210010
  43.2277930  34.5888310  57.7547500  49.7092290  50.1711140  60.2281970
  49.7219450  49.7673430  59.3604230  49.1567510  50.9458430  60.1243400
  51.0037710  46.8927360  55.3172140  50.8934040  45.9501690  55.4421560
  51.0005960  47.2543000  56.2034900  46.5457990  42.5192680  54.6734630
  45.6187270  42.4530060  54.9023100  46.6982810  43.4572810  54.5589870
  46.5327070  38.7909680  51.6701790  45.5930740  38.9523640  51.7554250
  46.8510330  39.5095360  51.1237780  50.5755280  44.0812980  55.1769880
  49.9567700  43.7432530  54.5296180  50.5579730  43.4372740  55.8849070
  42.1514630  43.0457420  57.4554360  41.7471630  42.3334670  56.9600260
  42.2377750  42.7010660  58.3442400  42.6196330  46.7324980  59.6193570
  42.3224620  46.1270450  58.9401350  43.5696150  46.7702290  59.5082930
  48.7519980  43.3199790  52.1842630  49.1913260  42.4822220  52.0380450
  49.4648400  43.9529190  52.2706770  46.8615360  48.2595860  56.1523870
  47.3011270  49.0020190  55.7379260  46.8002250  48.5022430  57.0762830
  52.3337120  34.5742600  50.4983670  52.0209780  34.6669430  51.3982740
  53.0949590  35.1523630  50.4481100  38.8519260  41.9402400  54.9561010
  38.7316860  42.6664490  54.3442280  38.5420150  41.1705310  54.4788920
  37.7352260  46.8117730  57.1735830  37.3280340  46.9532320  56.3189430
  38.6265270  46.5277890  56.9707040  49.5285540  51.2464980  53.5086880
  49.3686680  50.9567920  54.4068710  49.3632250  50.4705110  52.9732110
  42.0073920  51.0263510  55.2858500  41.8316400  50.1099050  55.0726300
  41.1529660  51.3850800  55.5256300  49.2311670  48.7552540  52.0684880
  48.5376830  48.7529830  51.4087160  49.9734530  48.3311860  51.6379050
  48.7961600  50.3815250  56.1433370  49.2518550  49.6004630  56.4571990
  49.1354120  51.0922070  56.6874550  41.3182920  35.2837470  58.3384680
  40.8751070  36.0647010  58.0069200  41.8767910  35.6067360  59.0455620
  44.4341740  34.9048170  53.2190510  43.8095920  34.9008040  53.9443820
  44.3471860  34.0379130  52.8226480  43.3558820  35.8284800  60.1974280
  43.6531150  36.7347630  60.1166300  43.9044380  35.3403580  59.5833850
  41.1097140  40.4071040  56.0665930  40.8838060  40.1908210  56.9712550
  40.3289670  40.8399500  55.7211900  48.3394900  40.4134410  54.6656580
  47.7403790  41.1370210  54.4820200  48.8874510  40.3511190  53.8833030
  46.9459770  39.0497950  56.6959860  47.3389340  39.3670150  55.8828550
  47.3076620  38.1709830  56.8104380  35.9823940  35.6398750  58.9190060
  35.6936990  36.2101610  59.6315040  36.7269700  35.1603200  59.2821290
  43.9692300  38.3157900  59.1963130  43.9728360  37.8747850  58.3467670
  44.8643420  38.6375230  59.3034950  39.8194680  38.1984390  58.1557340
  39.4794730  38.6759620  58.9124390  39.0572000  37.7449510  57.7958440
  44.0312450  39.3169980  52.1869890  44.1525270  39.2756460  53.1355710
  43.6460960  40.1794130  52.0316620  43.0433950  41.6271120  51.5853190
  42.4750850  41.1789370  50.9589100  43.7522950  41.9863900  51.0518340
  37.1340760  37.1203370  57.0722010  36.8487680  36.7559040  57.9100630
  37.0719620  36.3883830  56.4585150  40.5881430  45.6229310  53.8579600
  39.8143690  45.0826930  53.6978320  41.3176060  45.1035920  53.5197360
  51.3469410  44.6194670  59.6505990  52.0668530  45.1149960  59.2602100
  51.1451230  43.9412560  59.0059860  46.8079350  36.0132630  53.7935380
  45.9943960  35.5145800  53.7180690  46.6141300  36.8530880  53.3771730
  49.5227740  40.3852280  52.0897540  50.4107360  40.6969510  51.9148880
  49.4932830  39.5124530  51.6978120  40.6318830  45.2909690  57.4958410
  41.1497500  44.4877950  57.4415300  40.1802850  45.2288830  58.3375240
  45.5188330  46.5575970  52.7685710  45.8604030  47.3018200  52.2729030
  44.6901040  46.8707090  53.1310540  51.7942010  41.6964120  51.5577400
  51.7105730  42.1278340  50.7073840  52.5136200  42.1562470  51.9904220
  52.8229260  48.5506380  54.2859530  52.1805420  47.8962000  54.5603250
  52.4359920  48.9561470  53.5100200  48.4015740  45.8791810  58.1331220
  48.7539560  45.2819940  57.4732590  47.5178070  45.5536040  58.3039470
  44.4879020  46.6389500  55.5401630  45.1750150  47.1858710  55.9209220
  43.7011440  47.1830230  55.5751240  36.6271420  42.2562320  51.0318710
  37.4966270  42.5387120  51.3154630  36.1361740  43.0698190  50.9167520
  43.7906230  43.6435530  55.1526990  44.2469010  44.4540780  55.3787180
  43.4394440  43.3258670  55.9845480  39.6918010  33.9873180  55.6249510
  39.5632640  33.9791080  56.5734430  38.8680030  34.3256270  55.2740520
  51.2126640  47.4422840  50.8235880  50.9864220  46.7253280  51.4160520
  50.8222840  47.1935280  49.9857630  36.9942670  51.4689700  51.5980340
  37.3540310  52.0679040  50.9437610  36.8535010  52.0149590  52.3715370
  50.7942890  45.3594780  52.4850040  50.5064590  45.8207470  53.2727920
  51.5895060  44.8992550  52.7534260  43.0111290  48.8520900  52.4154010
  43.0021390  49.5850590  51.7998520  42.0909650  48.6052480  52.5080970
  38.6117930  44.0735790  53.1600770  38.0045880  44.8134690  53.1696070
  39.0867280  44.1635150  52.3338970  51.5512750  37.1943550  53.6445220
  50.9225910  37.2989220  52.9303450  51.0564670  37.4140330  54.4339100
  45.9970890  48.9149140  51.0779200  46.0982870  48.7113130  50.1481180
  45.0972630  48.6607420  51.2826980  43.5196780  39.4729500  55.0603100
  42.8112930  39.9415840  55.5016710  43.8041260  38.8151510  55.6948290
  47.5512210  36.1980160  56.4998890  47.4279990  36.2166290  55.5508400
  48.4996770  36.2459100  56.6197290  44.6389000  51.4335460  55.7726870
  44.8930500  51.3956850  54.8506240  43.6901480  51.3068790  55.7655120
  41.7231800  37.7814580  52.4353810  42.5722330  38.2184730  52.3694000
  41.3563070  38.0934840  53.2625870  50.6441580  42.3527340  57.3485380
  49.7031720  42.3677570  57.5233070  50.9585650  41.5663300  57.7945680
  40.6223220  44.0346940  50.9089340  41.3886490  43.9228300  51.4714770
  40.6997910  43.3384910  50.2566110  39.3169980  41.4672010  51.5922230
  39.3973570  40.5199520  51.7039630  40.2089730  41.7978890  51.6982890
  52.6467160  49.5236190  59.0239640  52.7714580  50.3467360  59.4963450
  53.5132720  49.3126920  58.6763790  40.1184690  51.6167400  58.6956770
  40.8547170  51.0682860  58.9665340  40.5025610  52.4823410  58.5562760
  37.0030170  47.6840970  54.5698280  36.0769950  47.9262110  54.5603690
  37.4686600  48.5115230  54.4483030  43.2287000  50.7897710  50.5182340
  44.0215610  51.0786540  50.0664130  42.7091350  50.3589880  49.8394820
  52.2817170  50.0167840  51.9419080  51.9958680  49.6032980  51.1273260
  52.0836720  50.9455550  51.8219600  43.7464400  46.0101120  50.3824690
  43.6415040  45.3953470  51.1086070  43.5788620  45.4867010  49.5987700
  46.9867130  45.0721150  50.9866680  46.4377230  45.5190450  51.6309420
  47.6086390  44.5670400  51.5104350  42.6542250  44.0312070  52.8831980
  43.0758670  43.8651940  53.7263370  42.7793090  43.2212300  52.3887120
  45.1669890  43.0549680  50.1309080  45.6875550  42.3398700  49.7650230
  45.8138290  43.6935550  50.4309590  41.5501150  40.1045300  49.8290140
  41.3490210  39.2412660  50.1903480  41.3793200  40.0178660  48.8911740
  49.0289460  34.9153530  52.3577020  49.3091750  34.0721430  52.7136440
  48.2555190  35.1476640  52.8715770  40.3483950  37.2045920  49.8168020
  40.6509850  37.2113350  48.9087170  41.0878540  36.8543780  50.3135680
  43.5668880  36.1480540  50.8024220  43.2190880  35.4704530  50.2226670
  43.7681650  35.6870050  51.6167610  45.7317920  51.1361290  52.4210820
  46.6268710  51.4746260  52.4429580  45.7635550  50.4140700  51.7935100
  39.3714080  46.5088340  50.6497820  39.8088950  47.0518010  51.3055400
  39.8561810  45.6835290  50.6594160  36.5859880  49.2977370  58.1018080
  36.9162890  48.4298430  57.8696720  37.0150880  49.5035890  58.9323040
  41.1821800  47.6286380  55.7620050  40.8817340  47.5051350  56.6623960
  41.0759290  46.7694970  55.3535780  53.9513720  47.4082780  50.4646730
  53.1206680  47.4759430  50.9353960  54.1285550  48.2986900  50.1613590
  53.4070180  44.1530260  52.9680930  54.1689090  44.7226910  53.0740620
  53.4224550  43.5857460  53.7389240  36.9074520  42.6768190  57.1988590
  36.2523360  42.4079830  56.5548290  37.7452470  42.5672670  56.7490570
  54.4130150  45.0080360  57.8122860  54.7838980  44.2247680  57.4058830
  55.0532080  45.6969460  57.6340160  53.4589350  44.4464630  50.1253450
  53.7338190  45.3543510  49.9972670  53.2700090  44.3827160  51.0615440
  49.8564960  37.4709480  51.4207080  50.2749840  37.2840460  50.5803740
  49.5501020  36.6188530  51.7310010  53.3554690  42.3833620  55.1182880
  52.9798290  41.6161550  54.6864170  52.6257810  42.7656320  55.6057810
  36.1212600  39.8867120  53.1413920  35.2176680  40.1497320  52.9665580
  36.6053220  40.1578290  52.3613880  52.6305650  40.6091110  58.4190120
  53.1543130  40.1153760  57.7880290  53.2165070  40.7441470  59.1637690
  38.6639810  38.9432660  51.0508300  39.3731510  38.5215880  50.5655580
  37.9479750  39.0107890  50.4191650  38.3113970  34.9971990  50.0910950
  39.0342100  35.5380930  50.4092170  38.5838490  34.7235410  49.2152490
  52.1205620  39.8664460  54.3582530  52.6164740  39.6335330  55.1431410
  51.9221690  39.0276300  53.9420170  53.5492780  38.5025410  56.8920210
  53.4392060  38.3481450  57.8302480  54.3100370  37.9746350  56.6495620
  54.4383050  36.3333330  50.1326350  55.3632360  36.2014510  49.9244640
  54.4158840  36.4126150  51.0862800  54.5121540  37.1043990  52.7583060
  53.7173040  37.0389110  53.2875970  54.7164820  38.0394630  52.7468410
  51.4539960  51.1435540  56.7521450  52.0499030  50.8220110  56.0755870
  51.7118110  50.6707360  57.5434720  42.4347890  50.1019080  59.7567310
  42.9512910  49.4906440  59.2315570  43.0845270  50.6047860  60.2478320
  50.9441470  35.4340870  59.2081890  51.3849560  35.3785970  58.3603490
  50.6749060  36.3498880  59.2792070  52.8080040  35.0656110  57.2190710
  52.7468440  34.1217330  57.0721730  53.5872070  35.1736200  57.7644170
  37.1132790  51.2048470  56.1814660  36.9454830  50.5719150  56.8796550
  36.2467300  51.4107870  55.8308850  37.7360810  35.0365250  53.6846520
  38.4940170  35.1494130  53.1110550  37.2737980  35.8734450  53.6389950
  44.2774620  37.1504520  56.6748830  43.4649130  36.7761410  56.3344710
  44.7816260  36.3949600  56.9770020  48.7799600  33.8146970  57.9131900
  49.3828970  34.3867180  58.3880420  48.0392590  34.3786410  57.6905800
  51.9234200  34.2168530  53.1872180  52.1184830  35.1151980  53.4539610
  51.1364070  33.9855610  53.6805130  38.7195490  49.8981700  53.6264800
  38.1943110  50.2789730  52.9226760  38.6440070  50.5232470  54.3474510
  40.1085960  35.5629300  52.2248490  40.6378720  34.7759100  52.0956440
  40.7414280  36.2420490  52.4584020  42.3023800  35.3004440  55.2793880
  41.6726540  34.5991750  55.4464010  41.7628940  36.0608570  55.0627040
  53.4760810  51.4569240  54.9478740  53.6513000  50.7706980  54.3039660
  52.7782380  51.9816290  54.5555410  41.3188460  51.8464080  52.5014050
  42.0507280  51.5623360  51.9537940  41.5782130  51.6077360  53.3913430
  40.4803250  47.9628810  52.5060380  39.8512130  48.4313910  53.0546210
  40.5951080  47.1178030  52.9406570  50.0878440  48.1973680  39.3169980
  49.6259970  47.4260920  39.6457150  50.9003990  48.2239750  39.8222430
  46.3141750  50.4831690  38.9373970  45.6953190  50.9389190  38.3668410
  47.1693530  50.6383150  38.5363670  54.6108840  38.7858250  44.2681910
  53.9061010  39.1739960  43.7497020  54.8766760  39.4808540  44.8702840
  47.1805100  45.3670930  36.3305880  46.5622370  45.8320380  35.7668600
  47.6928350  46.0598410  36.7475390  52.1733550  48.3267010  42.7393300
  51.4897070  48.9966120  42.7309970  52.7127840  48.5247660  41.9738160
  53.6257690  38.1546670  40.8675030  52.6782600  38.1885650  40.9990460
  53.9507680  38.9685620  41.2524390  49.7092290  50.1711140  41.4538480
  49.7219450  49.7673430  40.5860740  49.1567510  50.9458430  41.3499910
  51.0037710  46.8927360  36.5428650  50.8934040  45.9501690  36.6678070
  51.0005960  47.2543000  37.4291410  49.1077730  45.0740980  42.7821090
  49.5246520  44.8601090  41.9474550  49.8317550  45.3313770  43.3529710
  53.0539830  43.4728200  42.8737330  52.2258460  43.5421290  42.3987460
  53.6490310  44.0582510  42.4053160  50.5755280  44.0812980  36.4026390
  49.9567700  43.7432530  35.7552690  50.5579730  43.4372740  37.1105580
  50.0181840  40.2597520  43.8192200  49.6053020  41.0851230  44.0732190
  49.2857790  39.6742560  43.6268560  50.7081940  50.3056850  44.5073180
  50.2312500  51.1129040  44.3145790  50.0243730  49.6535180  44.6599390
  41.7114760  46.4706670  47.4957880  40.8143290  46.6946640  47.7431280
  41.7367630  46.5941610  46.5469280  46.8615360  48.2595860  37.3780380
  47.3011270  49.0020190  36.9635770  46.8002250  48.5022430  38.3019340
  42.3366330  49.2841690  48.2800400  42.3081760  49.6884640  47.4128830
  42.1731300  48.3552050  48.1172000  54.2881150  50.0668790  49.5764570
  54.7640870  50.5451680  50.2553650  54.9088310  49.9986280  48.8510070
  53.6914400  47.2581640  46.7364580  53.8177460  47.0193520  45.8181760
  53.7335780  46.4266180  47.2086660  47.5531140  50.9609640  45.3059390
  48.0675810  50.8717650  46.1081820  46.7100220  51.3069340  45.5987300
  49.5285540  51.2464980  34.7343390  49.3686680  50.9567920  35.6325220
  49.3632250  50.4705110  34.1988620  49.2311670  48.7552540  33.2941390
  48.5376830  48.7529830  32.6343670  49.9734530  48.3311860  32.8635560
  48.7961600  50.3815250  37.3689880  49.2518550  49.6004630  37.6828500
  49.1354120  51.0922070  37.9131060  53.5438410  39.3114100  47.7014320
  52.9282680  39.8193770  47.1729780  53.2234830  38.4112430  47.6440260
  45.6052730  38.1505990  45.1676510  45.1432100  38.3589010  45.9796450
  45.2030840  37.3365340  44.8647180  50.6057240  39.3714940  46.2973170
  49.7550830  39.0720690  46.6182240  50.4459030  39.6156950  45.3856990
  47.7006950  40.8716690  48.3971960  48.0260360  40.0380440  48.0574190
  48.4887280  41.3945210  48.5450290  43.5496350  41.3056620  47.9582710
  43.4539950  40.3651350  47.8083110  44.3928330  41.5271690  47.5630780
  45.2551940  37.8005260  49.1813230  44.5650260  37.6077460  49.8159320
  45.9984240  38.0839900  49.7137530  51.4211570  34.5069560  47.2676470
  51.7457340  33.7759220  47.7934450  51.4568080  34.1883200  46.3657460
  38.1203130  45.5283140  46.6876430  37.7357920  44.8876810  47.2859390
  38.4315320  46.2319260  47.2571160  51.3469410  44.6194670  40.8762500
  52.0668530  45.1149960  40.4858610  51.1451230  43.9412560  40.2316370
  46.7288210  44.6903730  46.7631500  46.6625520  43.7699400  46.5089090
  46.0993350  44.7879170  47.4776140  41.3176490  42.7155300  48.5180170
  41.0176630  42.8612480  47.6207990  42.0887730  42.1560590  48.4253560
  46.6604940  47.5124300  46.5135300  46.6749480  46.5805260  46.2954210
  45.9530040  47.5984060  47.1525070  52.8716150  44.1531640  45.8603880
  52.1464340  44.7460420  45.6633270  53.3991610  44.1455180  45.0617250
  52.8229260  48.5506380  35.5116040  52.1805420  47.8962000  35.7859760
  52.4359920  48.9561470  34.7356710  48.4015740  45.8791810  39.3587730
  48.7539560  45.2819940  38.6989100  47.5178070  45.5536040  39.5295980
  46.0938840  49.1541870  43.6075800  46.7381060  49.3601250  44.2849220
  46.4568280  48.3930270  43.1546650  47.3670920  47.1574220  42.3253250
  48.0093150  46.4567380  42.4385420  47.8920270  47.9372660  42.1450140
  49.1408540  47.9569120  45.5289310  49.4764780  48.5435810  46.2067230
  48.2208880  47.8261830  45.7587100  36.9942670  51.4689700  32.8236850
  37.3540310  52.0679040  32.1694120  36.8535010  52.0149590  33.5971880
  36.9784530  49.7344560  47.2979250  37.0875650  48.7939300  47.1574640
  36.3265090  49.9999310  46.6492980  44.9697120  48.0060450  48.6977370
  44.6493990  47.2869690  49.2423060  44.2955480  48.6815520  48.7713430
  45.9970890  48.9149140  32.3035710  46.0982870  48.7113130  31.3737690
  45.0972630  48.6607420  32.5083490  44.6389000  51.4335460  36.9983380
  44.8930500  51.3956850  36.0762750  43.6901480  51.3068790  36.9911630
  52.3519570  37.1094160  45.1280530  51.8493170  37.8499560  45.4674340
  53.1676230  37.4978160  44.8117320  50.6441580  42.3527340  38.5741890
  49.7031720  42.3677570  38.7489580  50.9585650  41.5663300  39.0202190
  52.6467160  49.5236190  40.2496150  52.7714580  50.3467360  40.7219960
  53.5132720  49.3126920  39.9020300  39.1242970  50.8013470  49.1098860
  39.9255700  51.1225520  49.5234260  38.6094790  50.4409050  49.8318770
  43.2287000  50.7897710  31.7438850  44.0215610  51.0786540  31.2920640
  42.7091350  50.3589880  31.0651330  47.9607600  46.9093340  49.0574270
  47.3545760  46.9324940  48.3170020  47.6561710  46.1776380  49.5941520
  49.3907970  50.6373630  47.6683680  50.3429720  50.5531650  47.6183920
  49.2436190  51.3015340  48.3417470  52.2817170  50.0167840  33.1675590
  51.9958680  49.6032980  32.3529770  52.0836720  50.9455550  33.0476110
  43.8978720  44.6957920  47.5870430  43.1324390  45.2642920  47.5025100
  44.0794680  44.4034130  46.6938660  46.9867130  45.0721150  32.2123190
  46.4377230  45.5190450  32.8565930  47.6086390  44.5670400  32.7360860
  51.0402070  46.4263250  48.1445450  51.7811540  46.7639010  47.6412910
  50.2774750  46.5955310  47.5915220  49.7147730  44.4778080  46.6800660
  50.1288750  44.6323160  47.5291080  48.7798730  44.6033300  46.8426440
  50.1869900  41.8174240  48.6839810  50.7690670  41.0626560  48.5960290
  50.3631670  42.3481680  47.9071290  46.8126860  42.1614740  46.0334430
  46.9323070  41.5655880  46.7729270  47.6720860  42.1984430  45.6135730
  49.1514760  42.7151930  44.6096940  48.6249980  43.2394550  44.0062080
  49.4946100  43.3479320  45.2406670  42.3270380  50.7351570  45.7654320
  41.7891470  51.4597630  45.4463020  42.5804340  50.2581910  44.9751660
  43.5795630  38.7036090  47.2910250  44.1695320  38.3951940  47.9788070
  42.7615870  38.2315840  47.4470150  48.3989060  38.3201900  47.5243270
  47.7104580  37.6583440  47.4593260  49.1195080  37.8740170  47.9691730
  45.1832590  51.9702780  46.0240970  45.1091290  52.8737920  46.3313340
  44.2811430  51.6514680  45.9963040  45.7317920  51.1361290  33.6467330
  46.6268710  51.4746260  33.6686090  45.7635550  50.4140700  33.0191610
  52.7112270  49.6664960  46.3533530  52.1114260  49.7257520  45.6097450
  52.8406170  48.7269940  46.4830380  53.9513720  47.4082780  31.6903240
  53.1206680  47.4759430  32.1610470  54.1285550  48.2986900  31.3870100
  54.4130150  45.0080360  39.0379370  54.7838980  44.2247680  38.6315340
  55.0532080  45.6969460  38.8596670  51.3963910  46.3916940  44.4509690
  50.5823750  46.8214100  44.7135480  51.8038110  47.0035350  43.8378740
  53.3554690  42.3833620  36.3439390  52.9798290  41.6161550  35.9120680
  52.6257810  42.7656320  36.8314320  52.7454310  41.5305140  45.9778910
  52.5140400  41.3017890  45.0776860  53.0058860  42.4504690  45.9323800
  51.1842380  36.7561570  48.7558610  52.0612560  36.7644970  49.1392610
  51.1963220  36.0192410  48.1450960  52.6305650  40.6091110  39.6446630
  53.1543130  40.1153760  39.0136800  53.2165070  40.7441470  40.3894200
  52.8095370  40.6930980  43.1666180  51.8598080  40.6594520  43.2811170
  52.9908380  41.6031090  42.9315950  51.4539960  51.1435540  37.9777960
  52.0499030  50.8220110  37.3012380  51.7118110  50.6707360  38.7691230
  39.3602530  47.5753450  48.1268590  39.3172160  47.2046360  49.0083050
  39.4913540  48.5131020  48.2670410  43.0608560  49.1313040  43.7278310
  42.8199920  49.3987600  42.8408830  44.0011200  49.3018770  43.7829170
  45.2662980  35.5945730  47.4834820  45.2051870  36.1867560  48.2330230
  46.2063360  35.4871690  47.3385080  47.9037540  35.2515790  47.1227110
  48.5177950  35.5695080  46.4608190  48.4487100  34.7664380  47.7422970
  54.3212720  51.1507420  44.5288950  53.8271000  51.5476290  43.8116080
  53.7126010  50.5256630  44.9226230  39.1990560  50.5215700  45.2466370
  38.6050880  50.3900400  45.9856410  39.1914400  49.6853840  44.7808470
  52.0052170  51.7930840  41.8075690  51.5455140  52.5446650  41.4333710
  51.3764630  51.0737310  41.7490490  42.4347890  50.1019080  40.9823820
  42.9512910  49.4906440  40.4572080  43.0845270  50.6047860  41.4734830
  45.1743390  50.9927570  41.8092800  45.4621200  50.7381870  40.9325810
  45.6866610  50.4404930  42.3998370  45.2415750  51.9143670  49.1761000
  46.1683060  51.6787940  49.2196960  45.2266180  52.7415670  48.6947030
  53.4760810  51.4569240  36.1735250  53.6513000  50.7706980  35.5296170
  52.7782380  51.9816290  35.7811920  42.4279360  34.5788420  48.9402880
  42.1463630  35.0822020  48.1763700  42.8099060  33.7810170  48.5745010
  41.3188460  51.8464080  33.7270560  42.0507280  51.5623360  33.1794450
  41.5782130  51.6077360  34.6169940  49.0294820  33.9942000  49.5183350
  48.9160270  34.3136610  50.4134870  49.8464560  34.3954510  49.2220630
  51.8093310  51.1413530  49.0002040  52.6018630  50.6462760  48.7928000
  52.1026460  51.8203670  49.6077650  47.9352970  42.0134470  19.8818090
  47.8547020  41.0989080  19.6109800  47.5217390  42.5101540  19.1757800
  46.0671010  43.7913490  21.7627360  45.2913110  43.3113930  22.0525930
  46.7183940  43.1119140  21.5883520  50.0878440  48.1973680  20.5426490
  49.6259970  47.4260920  20.8713660  50.9003990  48.2239750  21.0478940
  40.0638100  48.1373390  22.8361140  40.3666140  47.2471130  22.6571360
  40.8081690  48.6943610  22.6083390  46.3141750  50.4831690  20.1630480
  45.6953190  50.9389190  19.5924920  47.1693530  50.6383150  19.7620180
  45.5080000  46.4670680  21.7697520  45.4388280  45.5260620  21.6086650
  46.2699860  46.5572090  22.3420090  46.5385170  39.2741060  21.9966450
  46.9149990  38.4012940  21.8840120  46.4404680  39.6099760  21.1056890
  40.6690180  37.6466690  17.4583890  40.7756930  38.5470420  17.7652650
  39.7582540  37.5984660  17.1678540  50.3209290  36.7691500  18.9294790
  51.1418910  36.2788070  18.9720270  50.3543370  37.3589160  19.6826630
  42.5097910  40.6153060  21.7909070  43.0176130  41.1134030  22.4314090
  43.0411150  39.8388260  21.6148430  54.6108840  38.7858250  25.4938420
  53.9061010  39.1739960  24.9753530  54.8766760  39.4808540  26.0959350
  47.1805100  45.3670930  17.5562390  46.5622370  45.8320380  16.9925110
  47.6928350  46.0598410  17.9731900  42.0436860  44.8946800  24.2345990
  41.7106240  45.5215720  24.8767060  42.2203540  45.4208680  23.4547660
  50.5570770  38.7091880  21.7022330  49.8526340  38.9976770  22.2825440
  50.9182930  39.5191990  21.3421890  41.2555960  46.8627600  26.0495170
  41.8729960  47.5378680  25.7679620  40.3949080  47.2715580  25.9582670
  36.5488300  46.0527460  14.9302020  36.1716280  46.5414560  14.1986920
  36.8061370  46.7252740  15.5608550  52.1733550  48.3267010  23.9649810
  51.4897070  48.9966120  23.9566480  52.7127840  48.5247660  23.1994670
  53.6257690  38.1546670  22.0931540  52.6782600  38.1885650  22.2246970
  53.9507680  38.9685620  22.4780900  49.7092290  50.1711140  22.6794990
  49.7219450  49.7673430  21.8117250  49.1567510  50.9458430  22.5756420
  51.0037710  46.8927360  17.7685160  50.8934040  45.9501690  17.8934580
  51.0005960  47.2543000  18.6547920  49.1077730  45.0740980  24.0077600
  49.5246520  44.8601090  23.1731060  49.8317550  45.3313770  24.5786220
  46.5457990  42.5192680  17.1247650  45.6187270  42.4530060  17.3536120
  46.6982810  43.4572810  17.0102890  46.5327070  38.7909680  14.1214810
  45.5930740  38.9523640  14.2067270  46.8510330  39.5095360  13.5750800
  53.0539830  43.4728200  24.0993840  52.2258460  43.5421290  23.6243970
  53.6490310  44.0582510  23.6309670  50.5755280  44.0812980  17.6282900
  49.9567700  43.7432530  16.9809200  50.5579730  43.4372740  18.3362090
  50.0181840  40.2597520  25.0448710  49.6053020  41.0851230  25.2988700
  49.2857790  39.6742560  24.8525070  42.1514630  43.0457420  19.9067380
  41.7471630  42.3334670  19.4113280  42.2377750  42.7010660  20.7955420
  42.6196330  46.7324980  22.0706590  42.3224620  46.1270450  21.3914370
  43.5696150  46.7702290  21.9595950  50.7081940  50.3056850  25.7329690
  50.2312500  51.1129040  25.5402300  50.0243730  49.6535180  25.8855900
  41.7114760  46.4706670  28.7214390  40.8143290  46.6946640  28.9687790
  41.7367630  46.5941610  27.7725790  48.7519980  43.3199790  14.6355650
  49.1913260  42.4822220  14.4893470  49.4648400  43.9529190  14.7219790
  46.8615360  48.2595860  18.6036890  47.3011270  49.0020190  18.1892280
  46.8002250  48.5022430  19.5275850  42.3366330  49.2841690  29.5056910
  42.3081760  49.6884640  28.6385340  42.1731300  48.3552050  29.3428510
  52.3337120  34.5742600  12.9496690  52.0209780  34.6669430  13.8495760
  53.0949590  35.1523630  12.8994120  38.8519260  41.9402400  17.4074030
  38.7316860  42.6664490  16.7955300  38.5420150  41.1705310  16.9301940
  54.2881150  50.0668790  30.8021080  54.7640870  50.5451680  31.4810160
  54.9088310  49.9986280  30.0766580  37.7352260  46.8117730  19.6248850
  37.3280340  46.9532320  18.7702450  38.6265270  46.5277890  19.4220060
  53.6914400  47.2581640  27.9621090  53.8177460  47.0193520  27.0438270
  53.7335780  46.4266180  28.4343170  47.5531140  50.9609640  26.5315900
  48.0675810  50.8717650  27.3338330  46.7100220  51.3069340  26.8243810
  49.5285540  51.2464980  15.9599900  49.3686680  50.9567920  16.8581730
  49.3632250  50.4705110  15.4245130  42.0073920  51.0263510  17.7371520
  41.8316400  50.1099050  17.5239320  41.1529660  51.3850800  17.9769320
  49.2311670  48.7552540  14.5197900  48.5376830  48.7529830  13.8600180
  49.9734530  48.3311860  14.0892070  48.7961600  50.3815250  18.5946390
  49.2518550  49.6004630  18.9085010  49.1354120  51.0922070  19.1387570
  53.5438410  39.3114100  28.9270830  52.9282680  39.8193770  28.3986290
  53.2234830  38.4112430  28.8696770  41.3182920  35.2837470  20.7897700
  40.8751070  36.0647010  20.4582220  41.8767910  35.6067360  21.4968640
  44.4341740  34.9048170  15.6703530  43.8095920  34.9008040  16.3956840
  44.3471860  34.0379130  15.2739500  43.3558820  35.8284800  22.6487300
  43.6531150  36.7347630  22.5679320  43.9044380  35.3403580  22.0346870
  41.1097140  40.4071040  18.5178950  40.8838060  40.1908210  19.4225570
  40.3289670  40.8399500  18.1724920  48.3394900  40.4134410  17.1169600
  47.7403790  41.1370210  16.9333220  48.8874510  40.3511190  16.3346050
  46.9459770  39.0497950  19.1472880  47.3389340  39.3670150  18.3341570
  47.3076620  38.1709830  19.2617400  36.1694170  39.5818870  12.5805800
  36.0868840  40.5249630  12.7220790  35.8177230  39.4393780  11.7018150
  47.5314910  41.6403700  23.2423660  46.7996030  42.1490510  23.5913760
  47.1339250  40.8233680  22.9412440  43.9692300  38.3157900  21.6476150
  43.9728360  37.8747850  20.7980690  44.8643420  38.6375230  21.7547970
  44.0312450  39.3169980  14.6382910  44.1525270  39.2756460  15.5868730
  43.6460960  40.1794130  14.4829640  47.9940820  37.0937380  22.6546600
  48.0113560  37.5446030  23.4988450  47.7456400  36.1943020  22.8680040
  43.0433950  41.6271120  14.0366210  42.4750850  41.1789370  13.4102120
  43.7522950  41.9863900  13.5031360  40.5881430  45.6229310  16.3092620
  39.8143690  45.0826930  16.1491340  41.3176060  45.1035920  15.9710380
  51.3469410  44.6194670  22.1019010  52.0668530  45.1149960  21.7115120
  51.1451230  43.9412560  21.4572880  46.8079350  36.0132630  16.2448400
  45.9943960  35.5145800  16.1693710  46.6141300  36.8530880  15.8284750
  46.7288210  44.6903730  27.9888010  46.6625520  43.7699400  27.7345600
  46.0993350  44.7879170  28.7032650  49.5227740  40.3852280  14.5410560
  50.4107360  40.6969510  14.3661900  49.4932830  39.5124530  14.1491140
  40.6318830  45.2909690  19.9471430  41.1497500  44.4877950  19.8928320
  40.1802850  45.2288830  20.7888260  45.5188330  46.5575970  15.2198730
  45.8604030  47.3018200  14.7242050  44.6901040  46.8707090  15.5823560
  46.6604940  47.5124300  27.7391810  46.6749480  46.5805260  27.5210720
  45.9530040  47.5984060  28.3781580  51.7942010  41.6964120  14.0090420
  51.7105730  42.1278340  13.1586860  52.5136200  42.1562470  14.4417240
  52.8716150  44.1531640  27.0860390  52.1464340  44.7460420  26.8889780
  53.3991610  44.1455180  26.2873760  52.8229260  48.5506380  16.7372550
  52.1805420  47.8962000  17.0116270  52.4359920  48.9561470  15.9613220
  48.4015740  45.8791810  20.5844240  48.7539560  45.2819940  19.9245610
  47.5178070  45.5536040  20.7552490  44.4879020  46.6389500  17.9914650
  45.1750150  47.1858710  18.3722240  43.7011440  47.1830230  18.0264260
  36.6271420  42.2562320  13.4831730  37.4966270  42.5387120  13.7667650
  36.1361740  43.0698190  13.3680540  43.7906230  43.6435530  17.6040010
  44.2469010  44.4540780  17.8300200  43.4394440  43.3258670  18.4358500
  46.0938840  49.1541870  24.8332310  46.7381060  49.3601250  25.5105730
  46.4568280  48.3930270  24.3803160  47.3670920  47.1574220  23.5509760
  48.0093150  46.4567380  23.6641930  47.8920270  47.9372660  23.3706650
  51.2126640  47.4422840  13.2748900  50.9864220  46.7253280  13.8673540
  50.8222840  47.1935280  12.4370650  49.1408540  47.9569120  26.7545820
  49.4764780  48.5435810  27.4323740  48.2208880  47.8261830  26.9843610
  36.9942670  51.4689700  14.0493360  37.3540310  52.0679040  13.3950630
  36.8535010  52.0149590  14.8228390  50.7942890  45.3594780  14.9363060
  50.5064590  45.8207470  15.7240940  51.5895060  44.8992550  15.2047280
  36.9784530  49.7344560  28.5235760  37.0875650  48.7939300  28.3831150
  36.3265090  49.9999310  27.8749490  44.9697120  48.0060450  29.9233880
  44.6493990  47.2869690  30.4679570  44.2955480  48.6815520  29.9969940
  43.0111290  48.8520900  14.8667030  43.0021390  49.5850590  14.2511540
  42.0909650  48.6052480  14.9593990  38.6117930  44.0735790  15.6113790
  38.0045880  44.8134690  15.6209090  39.0867280  44.1635150  14.7851990
  48.1850720  38.2386610  25.2870680  48.5531540  37.4181820  25.6150250
  47.3248920  38.2988500  25.7026330  51.5512750  37.1943550  16.0958240
  50.9225910  37.2989220  15.3816470  51.0564670  37.4140330  16.8852120
  45.9970890  48.9149140  13.5292220  46.0982870  48.7113130  12.5994200
  45.0972630  48.6607420  13.7340000  43.5196780  39.4729500  17.5116120
  42.8112930  39.9415840  17.9529730  43.8041260  38.8151510  18.1461310
  47.5512210  36.1980160  18.9511910  47.4279990  36.2166290  18.0021420
  48.4996770  36.2459100  19.0710310  44.6389000  51.4335460  18.2239890
  44.8930500  51.3956850  17.3019260  43.6901480  51.3068790  18.2168140
  41.7231800  37.7814580  14.8866830  42.5722330  38.2184730  14.8207020
  41.3563070  38.0934840  15.7138890  52.3519570  37.1094160  26.3537040
  51.8493170  37.8499560  26.6930850  53.1676230  37.4978160  26.0373830
  50.6441580  42.3527340  19.7998400  49.7031720  42.3677570  19.9746090
  50.9585650  41.5663300  20.2458700  40.6223220  44.0346940  13.3602360
  41.3886490  43.9228300  13.9227790  40.6997910  43.3384910  12.7079130
  39.3169980  41.4672010  14.0435250  39.3973570  40.5199520  14.1552650
  40.2089730  41.7978890  14.1495910  52.6467160  49.5236190  21.4752660
  52.7714580  50.3467360  21.9476470  53.5132720  49.3126920  21.1276810
  40.1184690  51.6167400  21.1469790  40.8547170  51.0682860  21.4178360
  40.5025610  52.4823410  21.0075780  37.0030170  47.6840970  17.0211300
  36.0769950  47.9262110  17.0116710  37.4686600  48.5115230  16.8996050
  39.1242970  50.8013470  30.3355370  39.9255700  51.1225520  30.7490770
  38.6094790  50.4409050  31.0575280  43.2287000  50.7897710  12.9695360
  44.0215610  51.0786540  12.5177150  42.7091350  50.3589880  12.2907840
  47.9607600  46.9093340  30.2830780  47.3545760  46.9324940  29.5426530
  47.6561710  46.1776380  30.8198030  49.3907970  50.6373630  28.8940190
  50.3429720  50.5531650  28.8440430  49.2436190  51.3015340  29.5673980
  52.2817170  50.0167840  14.3932100  51.9958680  49.6032980  13.5786280
  52.0836720  50.9455550  14.2732620  43.7464400  46.0101120  12.8337710
  43.6415040  45.3953470  13.5599090  43.5788620  45.4867010  12.0500720
  46.9867130  45.0721150  13.4379700  46.4377230  45.5190450  14.0822440
  47.6086390  44.5670400  13.9617370  42.6542250  44.0312070  15.3345000
  43.0758670  43.8651940  16.1776390  42.7793090  43.2212300  14.8400140
  45.1669890  43.0549680  12.5822100  45.6875550  42.3398700  12.2163250
  45.8138290  43.6935550  12.8822610  41.5501150  40.1045300  12.2803160
  41.3490210  39.2412660  12.6416500  41.3793200  40.0178660  11.3424760
  42.3270380  50.7351570  26.9910830  41.7891470  51.4597630  26.6719530
  42.5804340  50.2581910  26.2008170  49.0289460  34.9153530  14.8090040
  49.3091750  34.0721430  15.1649460  48.2555190  35.1476640  15.3228790
  40.3483950  37.2045920  12.2681040  40.6509850  37.2113350  11.3600190
  41.0878540  36.8543780  12.7648700  45.1832590  51.9702780  27.2497480
  45.1091290  52.8737920  27.5569850  44.2811430  51.6514680  27.2219550
  43.5668880  36.1480540  13.2537240  43.2190880  35.4704530  12.6739690
  43.7681650  35.6870050  14.0680630  45.7317920  51.1361290  14.8723840
  46.6268710  51.4746260  14.8942600  45.7635550  50.4140700  14.2448120
  39.3714080  46.5088340  13.1010840  39.8088950  47.0518010  13.7568420
  39.8561810  45.6835290  13.1107180  36.5859880  49.2977370  20.5531100
  36.9162890  48.4298430  20.3209740  37.0150880  49.5035890  21.3836060
  41.1821800  47.6286380  18.2133070  40.8817340  47.5051350  19.1136980
  41.0759290  46.7694970  17.8048800  37.0750090  50.1647960  23.2912730
  36.6381080  50.3448760  24.1236880  37.6427770  50.9222580  23.1494450
  52.7112270  49.6664960  27.5790040  52.1114260  49.7257520  26.8353960
  52.8406170  48.7269940  27.7086890  53.9513720  47.4082780  12.9159750
  53.1206680  47.4759430  13.3866980  54.1285550  48.2986900  12.6126610
  53.4070180  44.1530260  15.4193950  54.1689090  44.7226910  15.5253640
  53.4224550  43.5857460  16.1902260  54.4130150  45.0080360  20.2635880
  54.7838980  44.2247680  19.8571850  55.0532080  45.6969460  20.0853180
  51.3963910  46.3916940  25.6766200  50.5823750  46.8214100  25.9391990
  51.8038110  47.0035350  25.0635250  53.4589350  44.4464630  12.5766470
  53.7338190  45.3543510  12.4485690  53.2700090  44.3827160  13.5128460
  49.8564960  37.4709480  13.8720100  50.2749840  37.2840460  13.0316760
  49.5501020  36.6188530  14.1823030  53.3554690  42.3833620  17.5695900
  52.9798290  41.6161550  17.1377190  52.6257810  42.7656320  18.0570830
  52.7454310  41.5305140  27.2035420  52.5140400  41.3017890  26.3033370
  53.0058860  42.4504690  27.1580310  52.6305650  40.6091110  20.8703140
  53.1543130  40.1153760  20.2393310  53.2165070  40.7441470  21.6150710
  52.8095370  40.6930980  24.3922690  51.8598080  40.6594520  24.5067680
  52.9908380  41.6031090  24.1572460  38.6639810  38.9432660  13.5021320
  39.3731510  38.5215880  13.0168600  37.9479750  39.0107890  12.8704670
  52.1205620  39.8664460  16.8095550  52.6164740  39.6335330  17.5944430
  51.9221690  39.0276300  16.3933190  53.5492780  38.5025410  19.3433230
  53.4392060  38.3481450  20.2815500  54.3100370  37.9746350  19.1008640
  54.4383050  36.3333330  12.5839370  55.3632360  36.2014510  12.3757660
  54.4158840  36.4126150  13.5375820  54.5121540  37.1043990  15.2096080
  53.7173040  37.0389110  15.7388990  54.7164820  38.0394630  15.1981430
  51.4539960  51.1435540  19.2034470  52.0499030  50.8220110  18.5268890
  51.7118110  50.6707360  19.9947740  43.0608560  49.1313040  24.9534820
  42.8199920  49.3987600  24.0665340  44.0011200  49.3018770  25.0085680
  54.3212720  51.1507420  25.7545460  53.8271000  51.5476290  25.0372590
  53.7126010  50.5256630  26.1482740  39.1990560  50.5215700  26.4722880
  38.6050880  50.3900400  27.2112920  39.1914400  49.6853840  26.0064980
  52.0052170  51.7930840  23.0332200  51.5455140  52.5446650  22.6590220
  51.3764630  51.0737310  22.9747000  38.8302790  47.8874080  25.4230920
  38.1036850  47.2679370  25.3556870  38.8911940  48.2814690  24.5529000
  42.4347890  50.1019080  22.2080330  42.9512910  49.4906440  21.6828590
  43.0845270  50.6047860  22.6991340  45.1743390  50.9927570  23.0349310
  45.4621200  50.7381870  22.1582320  45.6866610  50.4404930  23.6254880
  50.9441470  35.4340870  21.6594910  51.3849560  35.3785970  20.8116510
  50.6749060  36.3498880  21.7305090  52.8080040  35.0656110  19.6703730
  52.7468440  34.1217330  19.5234750  53.5872070  35.1736200  20.2157190
  37.1132790  51.2048470  18.6327680  36.9454830  50.5719150  19.3309570
  36.2467300  51.4107870  18.2821870  44.2774620  37.1504520  19.1261850
  43.4649130  36.7761410  18.7857730  44.7816260  36.3949600  19.4283040
  48.7799600  33.8146970  20.3644920  49.3828970  34.3867180  20.8393440
  48.0392590  34.3786410  20.1418820  51.9234200  34.2168530  15.6385200
  52.1184830  35.1151980  15.9052630  51.1364070  33.9855610  16.1318150
  38.7195490  49.8981700  16.0777820  38.1943110  50.2789730  15.3739780
  38.6440070  50.5232470  16.7987530  42.3023800  35.3004440  17.7306900
  41.6726540  34.5991750  17.8977030  41.7628940  36.0608570  17.5140060
  45.2415750  51.9143670  30.4017510  46.1683060  51.6787940  30.4453470
  45.2266180  52.7415670  29.9203540  53.4760810  51.4569240  17.3991760
  53.6513000  50.7706980  16.7552680  52.7782380  51.9816290  17.0068430
  41.3188460  51.8464080  14.9527070  42.0507280  51.5623360  14.4050960
  41.5782130  51.6077360  15.8426450  40.4803250  47.9628810  14.9573400
  39.8512130  48.4313910  15.5059230  40.5951080  47.1178030  15.3919590
  51.8093310  51.1413530  30.2258550  52.6018630  50.6462760  30.0184510
  52.1026460  51.8203670  30.8334160  46.0671010  43.7913490   2.9883870
  45.2913110  43.3113930   3.2782440  46.7183940  43.1119140   2.8140030
  40.0836840  44.1033300   3.8659630  39.2521720  43.8482010   4.2656140
  40.6917820  44.1744070   4.6017550  50.0878440  48.1973680   1.7683000
  49.6259970  47.4260920   2.0970170  50.9003990  48.2239750   2.2735450
  40.0638100  48.1373390   4.0617650  40.3666140  47.2471130   3.8827870
  40.8081690  48.6943610   3.8339900  36.4561800  41.6640840   3.5341720
  37.0277910  40.8963040   3.5345360  36.4563340  41.9629600   2.6248330
  45.5080000  46.4670680   2.9954030  45.4388280  45.5260620   2.8343160
  46.2699860  46.5572090   3.5676600  37.6986670  37.0725200   5.3210650
  37.5189510  36.1750950   5.6013410  37.2966750  37.6197070   5.9957600
  46.5385170  39.2741060   3.2222960  46.9149990  38.4012940   3.1096630
  46.4404680  39.6099760   2.3313400  38.3173340  39.5685700   3.9292990
  38.9983450  39.8324070   4.5480390  38.0021390  38.7286570   4.2631000
  42.5097910  40.6153060   3.0165580  43.0176130  41.1134030   3.6570600
  43.0411150  39.8388260   2.8404940  54.6108840  38.7858250   6.7194930
  53.9061010  39.1739960   6.2010040  54.8766760  39.4808540   7.3215860
  40.7934010  35.2551620   7.2829000  40.7952450  35.7724010   6.4774900
  39.9638320  34.7781800   7.2598930  42.0436860  44.8946800   5.4602500
  41.7106240  45.5215720   6.1023570  42.2203540  45.4208680   4.6804170
  50.5570770  38.7091880   2.9278840  49.8526340  38.9976770   3.5081950
  50.9182930  39.5191990   2.5678400  40.4749340  36.9661580   5.2899450
  40.8166150  37.8103630   4.9953320  39.5365150  37.1145320   5.4064790
  41.2555960  46.8627600   7.2751680  41.8729960  47.5378680   6.9936130
  40.3949080  47.2715580   7.1839180  52.1733550  48.3267010   5.1906320
  51.4897070  48.9966120   5.1822990  52.7127840  48.5247660   4.4251180
  53.6257690  38.1546670   3.3188050  52.6782600  38.1885650   3.4503480
  53.9507680  38.9685620   3.7037410  49.7092290  50.1711140   3.9051500
  49.7219450  49.7673430   3.0373760  49.1567510  50.9458430   3.8012930
  49.1077730  45.0740980   5.2334110  49.5246520  44.8601090   4.3987570
  49.8317550  45.3313770   5.8042730  53.0539830  43.4728200   5.3250350
  52.2258460  43.5421290   4.8500480  53.6490310  44.0582510   4.8566180
  50.0181840  40.2597520   6.2705220  49.6053020  41.0851230   6.5245210
  49.2857790  39.6742560   6.0781580  42.6196330  46.7324980   3.2963100
  42.3224620  46.1270450   2.6170880  43.5696150  46.7702290   3.1852460
  40.8643250  39.8200630   4.9122930  41.4157840  39.9295970   4.1376180
  41.3786760  40.1938230   5.6278160  50.7081940  50.3056850   6.9586200
  50.2312500  51.1129040   6.7658810  50.0243730  49.6535180   7.1112410
  41.7114760  46.4706670   9.9470900  40.8143290  46.6946640  10.1944300
  41.7367630  46.5941610   8.9982300  40.5385980  43.3419990   8.5228270
  40.3993750  44.2142790   8.8915670  39.6567340  42.9992800   8.3776210
  42.3366330  49.2841690  10.7313420  42.3081760  49.6884640   9.8641850
  42.1731300  48.3552050  10.5685020  54.2881150  50.0668790  12.0277590
  54.7640870  50.5451680  12.7066670  54.9088310  49.9986280  11.3023090
  36.4904630  45.1117540   4.4399180  36.5685050  45.2466310   3.4954900
  37.1046310  44.4033430   4.6327300  53.6914400  47.2581640   9.1877600
  53.8177460  47.0193520   8.2694780  53.7335780  46.4266180   9.6599680
  47.5531140  50.9609640   7.7572410  48.0675810  50.8717650   8.5594840
  46.7100220  51.3069340   8.0500320  53.5438410  39.3114100  10.1527340
  52.9282680  39.8193770   9.6242800  53.2234830  38.4112430  10.0953280
  36.5464150  46.1531710   6.9793640  36.7095190  45.6837070   6.1613010
  37.0116600  45.6455270   7.6442480  41.3182920  35.2837470   2.0154210
  40.8751070  36.0647010   1.6838730  41.8767910  35.6067360   2.7225150
  45.6052730  38.1505990   7.6189530  45.1432100  38.3589010   8.4309470
  45.2030840  37.3365340   7.3160200  50.6057240  39.3714940   8.7486190
  49.7550830  39.0720690   9.0695260  50.4459030  39.6156950   7.8370010
  47.7006950  40.8716690  10.8484980  48.0260360  40.0380440  10.5087210
  48.4887280  41.3945210  10.9963310  43.3558820  35.8284800   3.8743810
  43.6531150  36.7347630   3.7935830  43.9044380  35.3403580   3.2603380
  43.5496350  41.3056620  10.4095730  43.4539950  40.3651350  10.2596130
  44.3928330  41.5271690  10.0143800  38.6806890  37.7170290   8.5629510
  38.2870280  38.5645500   8.7702290  37.9925290  37.0796660   8.7538150
  45.2551940  37.8005260  11.6326250  44.5650260  37.6077460  12.2672340
  45.9984240  38.0839900  12.1650550  35.9823940  35.6398750   2.5959590
  35.6936990  36.2101610   3.3084570  36.7269700  35.1603200   2.9590820
  47.5314910  41.6403700   4.4680170  46.7996030  42.1490510   4.8170270
  47.1339250  40.8233680   4.1668950  43.9692300  38.3157900   2.8732660
  43.9728360  37.8747850   2.0237200  44.8643420  38.6375230   2.9804480
  39.8194680  38.1984390   1.8326870  39.4794730  38.6759620   2.5893920
  39.0572000  37.7449510   1.4727970  47.9940820  37.0937380   3.8803110
  48.0113560  37.5446030   4.7244960  47.7456400  36.1943020   4.0936550
  51.4211570  34.5069560   9.7189490  51.7457340  33.7759220  10.2447470
  51.4568080  34.1883200   8.8170480  38.1203130  45.5283140   9.1389450
  37.7357920  44.8876810   9.7372410  38.4315320  46.2319260   9.7084180
  44.2700270  42.3759680   4.6198070  44.6370400  41.9018250   5.3659410
  44.0805330  43.2501250   4.9606410  42.0599640  41.4168320   6.9382280
  41.7556710  42.2960300   7.1632640  43.0146100  41.4768110   6.9739720
  51.3469410  44.6194670   3.3275520  52.0668530  45.1149960   2.9371630
  51.1451230  43.9412560   2.6829390  46.7288210  44.6903730   9.2144520
  46.6625520  43.7699400   8.9602110  46.0993350  44.7879170   9.9289160
  38.1163370  42.2571060   8.0853640  37.7578310  42.9224910   8.6726980
  37.8217930  41.4254610   8.4566260  41.3176490  42.7155300  10.9693190
  41.0176630  42.8612480  10.0721010  42.0887730  42.1560590  10.8766580
  46.6604940  47.5124300   8.9648320  46.6749480  46.5805260   8.7467230
  45.9530040  47.5984060   9.6038090  52.8716150  44.1531640   8.3116900
  52.1464340  44.7460420   8.1146290  53.3991610  44.1455180   7.5130270
  46.0938840  49.1541870   6.0588820  46.7381060  49.3601250   6.7362240
  46.4568280  48.3930270   5.6059670  47.3670920  47.1574220   4.7766270
  48.0093150  46.4567380   4.8898440  47.8920270  47.9372660   4.5963160
  49.1408540  47.9569120   7.9802330  49.4764780  48.5435810   8.6580250
  48.2208880  47.8261830   8.2100120  36.6911940  35.7464300   8.7625740
  35.9770460  35.9461220   9.3678350  37.1106980  34.9703870   9.1340540
  36.9784530  49.7344560   9.7492270  37.0875650  48.7939300   9.6087660
  36.3265090  49.9999310   9.1006000  44.9697120  48.0060450  11.1490390
  44.6493990  47.2869690  11.6936080  44.2955480  48.6815520  11.2226450
  48.1850720  38.2386610   6.5127190  48.5531540  37.4181820   6.8406760
  47.3248920  38.2988500   6.9282840  45.1452710  40.8926200   6.7365160
  45.6437960  41.3672020   7.4017010  45.2875660  39.9689720   6.9435190
  52.3519570  37.1094160   7.5793550  51.8493170  37.8499560   7.9187360
  53.1676230  37.4978160   7.2630340  52.6467160  49.5236190   2.7009170
  52.7714580  50.3467360   3.1732980  53.5132720  49.3126920   2.3533320
  40.1184690  51.6167400   2.3726300  40.8547170  51.0682860   2.6434870
  40.5025610  52.4823410   2.2332290  39.1242970  50.8013470  11.5611880
  39.9255700  51.1225520  11.9747280  38.6094790  50.4409050  12.2831790
  47.9607600  46.9093340  11.5087290  47.3545760  46.9324940  10.7683040
  47.6561710  46.1776380  12.0454540  49.3907970  50.6373630  10.1196700
  50.3429720  50.5531650  10.0696940  49.2436190  51.3015340  10.7930490
  36.8440780  43.2886930  10.5047930  37.3479800  42.7094210  11.0764160
  36.1048200  43.5727160  11.0424300  43.8978720  44.6957920  10.0383450
  43.1324390  45.2642920   9.9538120  44.0794680  44.4034130   9.1451680
  51.0402070  46.4263250  10.5958470  51.7811540  46.7639010  10.0925930
  50.2774750  46.5955310  10.0428240  38.8763860  41.4316520  11.3998000
  38.9169200  41.1330390  12.3083230  39.7309360  41.8324130  11.2405520
  40.8169670  40.0108620   9.3672490  40.2866130  39.5199570   8.7395830
  41.4857740  40.4392820   8.8330420  49.7147730  44.4778080   9.1313680
  50.1288750  44.6323160   9.9804100  48.7798730  44.6033300   9.2939460
  50.1869900  41.8174240  11.1352830  50.7690670  41.0626560  11.0473310
  50.3631670  42.3481680  10.3584310  41.3041970  36.9770990   9.4469780
  41.2098840  36.3591740   8.7220650  40.7239360  37.7037280   9.2199690
  44.0703410  35.5344230   6.4797170  43.6220710  35.5568490   5.6342720
  43.4368610  35.1363250   7.0767470  44.4762960  44.4298560   7.1009610
  44.8951070  45.2731290   6.9285850  43.5571590  44.5670600   6.8716390
  46.8126860  42.1614740   8.4847450  46.9323070  41.5655880   9.2242290
  47.6720860  42.1984430   8.0648750  49.1514760  42.7151930   7.0609960
  48.6249980  43.2394550   6.4575100  49.4946100  43.3479320   7.6919690
  42.3270380  50.7351570   8.2167340  41.7891470  51.4597630   7.8976040
  42.5804340  50.2581910   7.4264680  43.5795630  38.7036090   9.7423270
  44.1695320  38.3951940  10.4301090  42.7615870  38.2315840   9.8983170
  48.3989060  38.3201900   9.9756290  47.7104580  37.6583440   9.9106280
  49.1195080  37.8740170  10.4204750  45.1832590  51.9702780   8.4753990
  45.1091290  52.8737920   8.7826360  44.2811430  51.6514680   8.4476060
  36.5859880  49.2977370   1.7787610  36.9162890  48.4298430   1.5466250
  37.0150880  49.5035890   2.6092570  37.0750090  50.1647960   4.5169240
  36.6381080  50.3448760   5.3493390  37.6427770  50.9222580   4.3750960
  52.7112270  49.6664960   8.8046550  52.1114260  49.7257520   8.0610470
  52.8406170  48.7269940   8.9343400  51.3963910  46.3916940   6.9022710
  50.5823750  46.8214100   7.1648500  51.8038110  47.0035350   6.2891760
  37.9450450  43.0620760   5.4161460  38.3123490  42.9748160   6.2957480
  37.3761270  42.2987310   5.3168320  52.7454310  41.5305140   8.4291930
  52.5140400  41.3017890   7.5289880  53.0058860  42.4504690   8.3836820
  37.4966450  39.9729850   9.3219880  36.6022500  39.9396610   9.6613590
  38.0364000  40.1716640  10.0871130  51.1842380  36.7561570  11.2071630
  52.0612560  36.7644970  11.5905630  51.1963220  36.0192410  10.5963980
  52.6305650  40.6091110   2.0959650  53.1543130  40.1153760   1.4649820
  53.2165070  40.7441470   2.8407220  52.8095370  40.6930980   5.6179200
  51.8598080  40.6594520   5.7324190  52.9908380  41.6031090   5.3828970
  38.0006160  34.2478180   3.6703100  38.6482350  33.6975560   3.2298260
  38.4208000  34.5021330   4.4918910  51.8958500  34.4419540   7.0272740
  52.5330720  35.0553680   7.3931930  52.0433390  34.4780200   6.0821970
  37.7538160  34.4033850   6.4128420  37.4052980  34.8597670   7.1786600
  37.4225860  33.5090980   6.4950850  39.3602530  47.5753450  10.5781610
  39.3172160  47.2046360  11.4596070  39.4913540  48.5131020  10.7183430
  43.0608560  49.1313040   6.1791330  42.8199920  49.3987600   5.2921850
  44.0011200  49.3018770   6.2342190  45.2662980  35.5945730   9.9347840
  45.2051870  36.1867560  10.6843250  46.2063360  35.4871690   9.7898100
  47.9037540  35.2515790   9.5740130  48.5177950  35.5695080   8.9121210
  48.4487100  34.7664380  10.1935990  54.3212720  51.1507420   6.9801970
  53.8271000  51.5476290   6.2629100  53.7126010  50.5256630   7.3739250
  38.4258800  33.9310050   9.6879190  38.9741790  33.7498100   8.9245300
  38.4914110  33.1404160  10.2235500  39.1990560  50.5215700   7.6979390
  38.6050880  50.3900400   8.4369430  39.1914400  49.6853840   7.2321490
  48.6445580  33.8147930   5.9009420  47.7705420  34.1483040   5.6982350
  48.5356330  33.3421110   6.7261290  49.5517560  36.0218800   7.2851140
  49.2230920  35.2070560   6.9052870  50.4999860  35.9788610   7.1616830
  52.0052170  51.7930840   4.2588710  51.5455140  52.5446650   3.8846730
  51.3764630  51.0737310   4.2003510  38.8302790  47.8874080   6.6487430
  38.1036850  47.2679370   6.5813380  38.8911940  48.2814690   5.7785510
  42.4347890  50.1019080   3.4336840  42.9512910  49.4906440   2.9085100
  43.0845270  50.6047860   3.9247850  45.1743390  50.9927570   4.2605820
  45.4621200  50.7381870   3.3838830  45.6866610  50.4404930   4.8511390
  46.3920400  34.7317770   4.8402330  45.6092190  35.2063270   5.1199090
  46.0983330  33.8272600   4.7315510  50.9441470  35.4340870   2.8851420
  51.3849560  35.3785970   2.0373020  50.6749060  36.3498880   2.9561600
  45.2415750  51.9143670  11.6274020  46.1683060  51.6787940  11.6709980
  45.2266180  52.7415670  11.1460050  42.4279360  34.5788420  11.3915900
  42.1463630  35.0822020  10.6276720  42.8099060  33.7810170  11.0258030
  49.0294820  33.9942000  11.9696370  48.9160270  34.3136610  12.8647890
  49.8464560  34.3954510  11.6733650  51.8093310  51.1413530  11.4515060
  52.6018630  50.6462760  11.2441020  52.1026460  51.8203670  12.0590670
  47.9352970  23.2390980  57.4305070  47.8547020  22.3245590  57.1596780
  47.5217390  23.7358050  56.7244780  46.0671010  25.0170000  59.3114340
  45.2913110  24.5370440  59.6012910  46.7183940  24.3375650  59.1370500
  50.0878440  29.4230190  58.0913470  49.6259970  28.6517430  58.4200640
  50.9003990  29.4496260  58.5965920  38.4928790  20.2891700  53.9732490
  37.6045490  20.6307670  53.8712370  38.7769980  20.0892020  53.0813320
  36.4561800  22.8897350  59.8572190  37.0277910  22.1219550  59.8575830
  36.4563340  23.1886110  58.9478800  46.3141750  31.7088200  57.7117460
  45.6953190  32.1645700  57.1411900  47.1693530  31.8639660  57.3107160
  45.5080000  27.6927190  59.3184500  45.4388280  26.7517130  59.1573630
  46.2699860  27.7828600  59.8907070  46.5385170  20.4997570  59.5453430
  46.9149990  19.6269450  59.4327100  46.4404680  20.8356270  58.6543870
  40.6690180  18.8723200  55.0070870  40.7756930  19.7726930  55.3139630
  39.7582540  18.8241170  54.7165520  50.3209290  17.9948010  56.4781770
  51.1418910  17.5044580  56.5207250  50.3543370  18.5845670  57.2313610
  42.5097910  21.8409570  59.3396050  43.0176130  22.3390540  59.9801070
  43.0411150  21.0644770  59.1635410  47.1805100  26.5927440  55.1049370
  46.5622370  27.0576890  54.5412090  47.6928350  27.2854920  55.5218880
  50.5570770  19.9348390  59.2509310  49.8526340  20.2233280  59.8312420
  50.9182930  20.7448500  58.8908870  36.5488300  27.2783970  52.4789000
  36.1716280  27.7671070  51.7473900  36.8061370  27.9509250  53.1095530
  53.6257690  19.3803180  59.6418520  52.6782600  19.4142160  59.7733950
  53.9507680  20.1942130  60.0267880  44.1577230  15.6800360  57.9374510
  44.4652210  15.1247250  57.2210010  43.2277930  15.8144820  57.7547500
  49.7092290  31.3967650  60.2281970  49.7219450  30.9929940  59.3604230
  49.1567510  32.1714940  60.1243400  51.0037710  28.1183870  55.3172140
  50.8934040  27.1758200  55.4421560  51.0005960  28.4799510  56.2034900
  46.5457990  23.7449190  54.6734630  45.6187270  23.6786570  54.9023100
  46.6982810  24.6829320  54.5589870  46.5327070  20.0166190  51.6701790
  45.5930740  20.1780150  51.7554250  46.8510330  20.7351870  51.1237780
  50.5755280  25.3069490  55.1769880  49.9567700  24.9689040  54.5296180
  50.5579730  24.6629250  55.8849070  42.1514630  24.2713930  57.4554360
  41.7471630  23.5591180  56.9600260  42.2377750  23.9267170  58.3442400
  42.6196330  27.9581490  59.6193570  42.3224620  27.3526960  58.9401350
  43.5696150  27.9958800  59.5082930  48.7519980  24.5456300  52.1842630
  49.1913260  23.7078730  52.0380450  49.4648400  25.1785700  52.2706770
  46.8615360  29.4852370  56.1523870  47.3011270  30.2276700  55.7379260
  46.8002250  29.7278940  57.0762830  52.3337120  15.7999110  50.4983670
  52.0209780  15.8925940  51.3982740  53.0949590  16.3780140  50.4481100
  38.8519260  23.1658910  54.9561010  38.7316860  23.8921000  54.3442280
  38.5420150  22.3961820  54.4788920  37.7352260  28.0374240  57.1735830
  37.3280340  28.1788830  56.3189430  38.6265270  27.7534400  56.9707040
  49.5285540  32.4721490  53.5086880  49.3686680  32.1824430  54.4068710
  49.3632250  31.6961620  52.9732110  42.0073920  32.2520020  55.2858500
  41.8316400  31.3355560  55.0726300  41.1529660  32.6107310  55.5256300
  49.2311670  29.9809050  52.0684880  48.5376830  29.9786340  51.4087160
  49.9734530  29.5568370  51.6379050  48.7961600  31.6071760  56.1433370
  49.2518550  30.8261140  56.4571990  49.1354120  32.3178580  56.6874550
  41.3182920  16.5093980  58.3384680  40.8751070  17.2903520  58.0069200
  41.8767910  16.8323870  59.0455620  44.4341740  16.1304680  53.2190510
  43.8095920  16.1264550  53.9443820  44.3471860  15.2635640  52.8226480
  43.3558820  17.0541310  60.1974280  43.6531150  17.9604140  60.1166300
  43.9044380  16.5660090  59.5833850  41.1097140  21.6327550  56.0665930
  40.8838060  21.4164720  56.9712550  40.3289670  22.0656010  55.7211900
  48.3394900  21.6390920  54.6656580  47.7403790  22.3626720  54.4820200
  48.8874510  21.5767700  53.8833030  46.9459770  20.2754460  56.6959860
  47.3389340  20.5926660  55.8828550  47.3076620  19.3966340  56.8104380
  35.9823940  16.8655260  58.9190060  35.6936990  17.4358120  59.6315040
  36.7269700  16.3859710  59.2821290  36.1694170  20.8075380  50.1292780
  36.0868840  21.7506140  50.2707770  35.8177230  20.6650290  49.2505130
  43.9692300  19.5414410  59.1963130  43.9728360  19.1004360  58.3467670
  44.8643420  19.8631740  59.3034950  39.8194680  19.4240900  58.1557340
  39.4794730  19.9016130  58.9124390  39.0572000  18.9706020  57.7958440
  44.0312450  20.5426490  52.1869890  44.1525270  20.5012970  53.1355710
  43.6460960  21.4050640  52.0316620  43.0433950  22.8527630  51.5853190
  42.4750850  22.4045880  50.9589100  43.7522950  23.2120410  51.0518340
  37.1340760  18.3459880  57.0722010  36.8487680  17.9815550  57.9100630
  37.0719620  17.6140340  56.4585150  40.5881430  26.8485820  53.8579600
  39.8143690  26.3083440  53.6978320  41.3176060  26.3292430  53.5197360
  51.3469410  25.8451180  59.6505990  52.0668530  26.3406470  59.2602100
  51.1451230  25.1669070  59.0059860  46.8079350  17.2389140  53.7935380
  45.9943960  16.7402310  53.7180690  46.6141300  18.0787390  53.3771730
  49.5227740  21.6108790  52.0897540  50.4107360  21.9226020  51.9148880
  49.4932830  20.7381040  51.6978120  40.6318830  26.5166200  57.4958410
  41.1497500  25.7134460  57.4415300  40.1802850  26.4545340  58.3375240
  45.5188330  27.7832480  52.7685710  45.8604030  28.5274710  52.2729030
  44.6901040  28.0963600  53.1310540  51.7942010  22.9220630  51.5577400
  51.7105730  23.3534850  50.7073840  52.5136200  23.3818980  51.9904220
  52.8229260  29.7762890  54.2859530  52.1805420  29.1218510  54.5603250
  52.4359920  30.1817980  53.5100200  48.4015740  27.1048320  58.1331220
  48.7539560  26.5076450  57.4732590  47.5178070  26.7792550  58.3039470
  44.4879020  27.8646010  55.5401630  45.1750150  28.4115220  55.9209220
  43.7011440  28.4086740  55.5751240  36.6271420  23.4818830  51.0318710
  37.4966270  23.7643630  51.3154630  36.1361740  24.2954700  50.9167520
  43.7906230  24.8692040  55.1526990  44.2469010  25.6797290  55.3787180
  43.4394440  24.5515180  55.9845480  39.6918010  15.2129690  55.6249510
  39.5632640  15.2047590  56.5734430  38.8680030  15.5512780  55.2740520
  51.2126640  28.6679350  50.8235880  50.9864220  27.9509790  51.4160520
  50.8222840  28.4191790  49.9857630  36.9942670  32.6946210  51.5980340
  37.3540310  33.2935550  50.9437610  36.8535010  33.2406100  52.3715370
  50.7942890  26.5851290  52.4850040  50.5064590  27.0463980  53.2727920
  51.5895060  26.1249060  52.7534260  43.0111290  30.0777410  52.4154010
  43.0021390  30.8107100  51.7998520  42.0909650  29.8308990  52.5080970
  38.6117930  25.2992300  53.1600770  38.0045880  26.0391200  53.1696070
  39.0867280  25.3891660  52.3338970  51.5512750  18.4200060  53.6445220
  50.9225910  18.5245730  52.9303450  51.0564670  18.6396840  54.4339100
  45.9970890  30.1405650  51.0779200  46.0982870  29.9369640  50.1481180
  45.0972630  29.8863930  51.2826980  43.5196780  20.6986010  55.0603100
  42.8112930  21.1672350  55.5016710  43.8041260  20.0408020  55.6948290
  47.5512210  17.4236670  56.4998890  47.4279990  17.4422800  55.5508400
  48.4996770  17.4715610  56.6197290  44.6389000  32.6591970  55.7726870
  44.8930500  32.6213360  54.8506240  43.6901480  32.5325300  55.7655120
  41.7231800  19.0071090  52.4353810  42.5722330  19.4441240  52.3694000
  41.3563070  19.3191350  53.2625870  50.6441580  23.5783850  57.3485380
  49.7031720  23.5934080  57.5233070  50.9585650  22.7919810  57.7945680
  40.6223220  25.2603450  50.9089340  41.3886490  25.1484810  51.4714770
  40.6997910  24.5641420  50.2566110  39.3169980  22.6928520  51.5922230
  39.3973570  21.7456030  51.7039630  40.2089730  23.0235400  51.6982890
  52.6467160  30.7492700  59.0239640  52.7714580  31.5723870  59.4963450
  53.5132720  30.5383430  58.6763790  40.1184690  32.8423910  58.6956770
  40.8547170  32.2939370  58.9665340  40.5025610  33.7079920  58.5562760
  37.0030170  28.9097480  54.5698280  36.0769950  29.1518620  54.5603690
  37.4686600  29.7371740  54.4483030  43.2287000  32.0154220  50.5182340
  44.0215610  32.3043050  50.0664130  42.7091350  31.5846390  49.8394820
  52.2817170  31.2424350  51.9419080  51.9958680  30.8289490  51.1273260
  52.0836720  32.1712060  51.8219600  43.7464400  27.2357630  50.3824690
  43.6415040  26.6209980  51.1086070  43.5788620  26.7123520  49.5987700
  46.9867130  26.2977660  50.9866680  46.4377230  26.7446960  51.6309420
  47.6086390  25.7926910  51.5104350  42.6542250  25.2568580  52.8831980
  43.0758670  25.0908450  53.7263370  42.7793090  24.4468810  52.3887120
  45.1669890  24.2806190  50.1309080  45.6875550  23.5655210  49.7650230
  45.8138290  24.9192060  50.4309590  41.5501150  21.3301810  49.8290140
  41.3490210  20.4669170  50.1903480  41.3793200  21.2435170  48.8911740
  49.0289460  16.1410040  52.3577020  49.3091750  15.2977940  52.7136440
  48.2555190  16.3733150  52.8715770  40.3483950  18.4302430  49.8168020
  40.6509850  18.4369860  48.9087170  41.0878540  18.0800290  50.3135680
  43.5668880  17.3737050  50.8024220  43.2190880  16.6961040  50.2226670
  43.7681650  16.9126560  51.6167610  45.7317920  32.3617800  52.4210820
  46.6268710  32.7002770  52.4429580  45.7635550  31.6397210  51.7935100
  39.3714080  27.7344850  50.6497820  39.8088950  28.2774520  51.3055400
  39.8561810  26.9091800  50.6594160  36.5859880  30.5233880  58.1018080
  36.9162890  29.6554940  57.8696720  37.0150880  30.7292400  58.9323040
  41.1821800  28.8542890  55.7620050  40.8817340  28.7307860  56.6623960
  41.0759290  27.9951480  55.3535780  53.9513720  28.6339290  50.4646730
  53.1206680  28.7015940  50.9353960  54.1285550  29.5243410  50.1613590
  53.4070180  25.3786770  52.9680930  54.1689090  25.9483420  53.0740620
  53.4224550  24.8113970  53.7389240  36.9074520  23.9024700  57.1988590
  36.2523360  23.6336340  56.5548290  37.7452470  23.7929180  56.7490570
  54.4130150  26.2336870  57.8122860  54.7838980  25.4504190  57.4058830
  55.0532080  26.9225970  57.6340160  53.4589350  25.6721140  50.1253450
  53.7338190  26.5800020  49.9972670  53.2700090  25.6083670  51.0615440
  49.8564960  18.6965990  51.4207080  50.2749840  18.5096970  50.5803740
  49.5501020  17.8445040  51.7310010  53.3554690  23.6090130  55.1182880
  52.9798290  22.8418060  54.6864170  52.6257810  23.9912830  55.6057810
  36.1212600  21.1123630  53.1413920  35.2176680  21.3753830  52.9665580
  36.6053220  21.3834800  52.3613880  52.6305650  21.8347620  58.4190120
  53.1543130  21.3410270  57.7880290  53.2165070  21.9697980  59.1637690
  38.6639810  20.1689170  51.0508300  39.3731510  19.7472390  50.5655580
  37.9479750  20.2364400  50.4191650  38.3113970  16.2228500  50.0910950
  39.0342100  16.7637440  50.4092170  38.5838490  15.9491920  49.2152490
  52.1205620  21.0920970  54.3582530  52.6164740  20.8591840  55.1431410
  51.9221690  20.2532810  53.9420170  53.5492780  19.7281920  56.8920210
  53.4392060  19.5737960  57.8302480  54.3100370  19.2002860  56.6495620
  54.4383050  17.5589840  50.1326350  55.3632360  17.4271020  49.9244640
  54.4158840  17.6382660  51.0862800  54.5121540  18.3300500  52.7583060
  53.7173040  18.2645620  53.2875970  54.7164820  19.2651140  52.7468410
  51.4539960  32.3692050  56.7521450  52.0499030  32.0476620  56.0755870
  51.7118110  31.8963870  57.5434720  42.4347890  31.3275590  59.7567310
  42.9512910  30.7162950  59.2315570  43.0845270  31.8304370  60.2478320
  50.9441470  16.6597380  59.2081890  51.3849560  16.6042480  58.3603490
  50.6749060  17.5755390  59.2792070  52.8080040  16.2912620  57.2190710
  52.7468440  15.3473840  57.0721730  53.5872070  16.3992710  57.7644170
  37.1132790  32.4304980  56.1814660  36.9454830  31.7975660  56.8796550
  36.2467300  32.6364380  55.8308850  37.7360810  16.2621760  53.6846520
  38.4940170  16.3750640  53.1110550  37.2737980  17.0990960  53.6389950
  44.2774620  18.3761030  56.6748830  43.4649130  18.0017920  56.3344710
  44.7816260  17.6206110  56.9770020  48.7799600  15.0403480  57.9131900
  49.3828970  15.6123690  58.3880420  48.0392590  15.6042920  57.6905800
  51.9234200  15.4425040  53.1872180  52.1184830  16.3408490  53.4539610
  51.1364070  15.2112120  53.6805130  38.7195490  31.1238210  53.6264800
  38.1943110  31.5046240  52.9226760  38.6440070  31.7488980  54.3474510
  40.1085960  16.7885810  52.2248490  40.6378720  16.0015610  52.0956440
  40.7414280  17.4677000  52.4584020  42.3023800  16.5260950  55.2793880
  41.6726540  15.8248260  55.4464010  41.7628940  17.2865080  55.0627040
  53.4760810  32.6825750  54.9478740  53.6513000  31.9963490  54.3039660
  52.7782380  33.2072800  54.5555410  41.3188460  33.0720590  52.5014050
  42.0507280  32.7879870  51.9537940  41.5782130  32.8333870  53.3913430
  40.4803250  29.1885320  52.5060380  39.8512130  29.6570420  53.0546210
  40.5951080  28.3434540  52.9406570  37.6986670  18.2981710  42.8697630
  37.5189510  17.4007460  43.1500390  37.2966750  18.8453580  43.5444580
  54.6108840  20.0114760  44.2681910  53.9061010  20.3996470  43.7497020
  54.8766760  20.7065050  44.8702840  40.7934010  16.4808130  44.8315980
  40.7952450  16.9980520  44.0261880  39.9638320  16.0038310  44.8085910
  40.4749340  18.1918090  42.8386430  40.8166150  19.0360140  42.5440300
  39.5365150  18.3401830  42.9551770  53.6257690  19.3803180  40.8675030
  52.6782600  19.4142160  40.9990460  53.9507680  20.1942130  41.2524390
  40.8643250  21.0457140  42.4609910  41.4157840  21.1552480  41.6863160
  41.3786760  21.4194740  43.1765140  41.7114760  27.6963180  47.4957880
  40.8143290  27.9203150  47.7431280  41.7367630  27.8198120  46.5469280
  40.5385980  24.5676500  46.0715250  40.3993750  25.4399300  46.4402650
  39.6567340  24.2249310  45.9263190  42.3366330  30.5098200  48.2800400
  42.3081760  30.9141150  47.4128830  42.1731300  29.5808560  48.1172000
  54.2881150  31.2925300  49.5764570  54.7640870  31.7708190  50.2553650
  54.9088310  31.2242790  48.8510070  53.5438410  20.5370610  47.7014320
  52.9282680  21.0450280  47.1729780  53.2234830  19.6368940  47.6440260
  45.6052730  19.3762500  45.1676510  45.1432100  19.5845520  45.9796450
  45.2030840  18.5621850  44.8647180  50.6057240  20.5971450  46.2973170
  49.7550830  20.2977200  46.6182240  50.4459030  20.8413460  45.3856990
  47.7006950  22.0973200  48.3971960  48.0260360  21.2636950  48.0574190
  48.4887280  22.6201720  48.5450290  43.5496350  22.5313130  47.9582710
  43.4539950  21.5907860  47.8083110  44.3928330  22.7528200  47.5630780
  38.6806890  18.9426800  46.1116490  38.2870280  19.7902010  46.3189270
  37.9925290  18.3053170  46.3025130  45.2551940  19.0261770  49.1813230
  44.5650260  18.8333970  49.8159320  45.9984240  19.3096410  49.7137530
  35.9823940  16.8655260  40.1446570  35.6936990  17.4358120  40.8571550
  36.7269700  16.3859710  40.5077800  51.4211570  15.7326070  47.2676470
  51.7457340  15.0015730  47.7934450  51.4568080  15.4139710  46.3657460
  38.1163370  23.4827570  45.6340620  37.7578310  24.1481420  46.2213960
  37.8217930  22.6511120  46.0053240  41.3176490  23.9411810  48.5180170
  41.0176630  24.0868990  47.6207990  42.0887730  23.3817100  48.4253560
  46.6604940  28.7380810  46.5135300  46.6749480  27.8061770  46.2954210
  45.9530040  28.8240570  47.1525070  39.6918010  15.2129690  36.8506020
  39.5632640  15.2047590  37.7990940  38.8680030  15.5512780  36.4997030
  36.6911940  16.9720810  46.3112720  35.9770460  17.1717730  46.9165330
  37.1106980  16.1960380  46.6827520  44.9697120  29.2316960  48.6977370
  44.6493990  28.5126200  49.2423060  44.2955480  29.9072030  48.7713430
  48.1850720  19.4643120  44.0614170  48.5531540  18.6438330  44.3893740
  47.3248920  19.5245010  44.4769820  45.1452710  22.1182710  44.2852140
  45.6437960  22.5928530  44.9503990  45.2875660  21.1946230  44.4922170
  52.3519570  18.3350670  45.1280530  51.8493170  19.0756070  45.4674340
  53.1676230  18.7234670  44.8117320  39.1242970  32.0269980  49.1098860
  39.9255700  32.3482030  49.5234260  38.6094790  31.6665560  49.8318770
  47.9607600  28.1349850  49.0574270  47.3545760  28.1581450  48.3170020
  47.6561710  27.4032890  49.5941520  49.3907970  31.8630140  47.6683680
  50.3429720  31.7788160  47.6183920  49.2436190  32.5271850  48.3417470
  36.8440780  24.5143440  48.0534910  37.3479800  23.9350720  48.6251140
  36.1048200  24.7983670  48.5911280  51.0402070  27.6519760  48.1445450
  51.7811540  27.9895520  47.6412910  50.2774750  27.8211820  47.5915220
  38.8763860  22.6573030  48.9484980  38.9169200  22.3586900  49.8570210
  39.7309360  23.0580640  48.7892500  40.8169670  21.2365130  46.9159470
  40.2866130  20.7456080  46.2882810  41.4857740  21.6649330  46.3817400
  50.1869900  23.0430750  48.6839810  50.7690670  22.2883070  48.5960290
  50.3631670  23.5738190  47.9071290  41.3041970  18.2027500  46.9956760
  41.2098840  17.5848250  46.2707630  40.7239360  18.9293790  46.7686670
  44.0703410  16.7600740  44.0284150  43.6220710  16.7825000  43.1829700
  43.4368610  16.3619760  44.6254450  43.5795630  19.9292600  47.2910250
  44.1695320  19.6208450  47.9788070  42.7615870  19.4572350  47.4470150
  48.3989060  19.5458410  47.5243270  47.7104580  18.8839950  47.4593260
  49.1195080  19.0996680  47.9691730  52.7454310  22.7561650  45.9778910
  52.5140400  22.5274400  45.0776860  53.0058860  23.6761200  45.9323800
  37.4966450  21.1986360  46.8706860  36.6022500  21.1653120  47.2100570
  38.0364000  21.3973150  47.6358110  51.1842380  17.9818080  48.7558610
  52.0612560  17.9901480  49.1392610  51.1963220  17.2448920  48.1450960
  52.6305650  21.8347620  39.6446630  53.1543130  21.3410270  39.0136800
  53.2165070  21.9697980  40.3894200  38.0006160  15.4734690  41.2190080
  38.6482350  14.9232070  40.7785240  38.4208000  15.7277840  42.0405890
  53.5492780  19.7281920  38.1176720  53.4392060  19.5737960  39.0558990
  54.3100370  19.2002860  37.8752130  51.8958500  15.6676050  44.5759720
  52.5330720  16.2810190  44.9418910  52.0433390  15.7036710  43.6308950
  54.4383050  17.5589840  31.3582860  55.3632360  17.4271020  31.1501150
  54.4158840  17.6382660  32.3119310  54.5121540  18.3300500  33.9839570
  53.7173040  18.2645620  34.5132480  54.7164820  19.2651140  33.9724920
  37.7538160  15.6290360  43.9615400  37.4052980  16.0854180  44.7273580
  37.4225860  14.7347490  44.0437830  45.2662980  16.8202240  47.4834820
  45.2051870  17.4124070  48.2330230  46.2063360  16.7128200  47.3385080
  47.9037540  16.4772300  47.1227110  48.5177950  16.7951590  46.4608190
  48.4487100  15.9920890  47.7422970  38.4258800  15.1566560  47.2366170
  38.9741790  14.9754610  46.4732280  38.4914110  14.3660670  47.7722480
  48.6445580  15.0404440  43.4496400  47.7705420  15.3739550  43.2469330
  48.5356330  14.5677620  44.2748270  49.5517560  17.2475310  44.8338120
  49.2230920  16.4327070  44.4539850  50.4999860  17.2045120  44.7103810
  46.3920400  15.9574280  42.3889310  45.6092190  16.4319780  42.6686070
  46.0983330  15.0529110  42.2802490  50.9441470  16.6597380  40.4338400
  51.3849560  16.6042480  39.5860000  50.6749060  17.5755390  40.5048580
  52.8080040  16.2912620  38.4447220  52.7468440  15.3473840  38.2978240
  53.5872070  16.3992710  38.9900680  37.7360810  16.2621760  34.9103030
  38.4940170  16.3750640  34.3367060  37.2737980  17.0990960  34.8646460
  40.1085960  16.7885810  33.4505000  40.6378720  16.0015610  33.3212950
  40.7414280  17.4677000  33.6840530  45.2415750  33.1400180  49.1761000
  46.1683060  32.9044450  49.2196960  45.2266180  33.9672180  48.6947030
  42.4279360  15.8044930  48.9402880  42.1463630  16.3078530  48.1763700
  42.8099060  15.0066680  48.5745010  49.0294820  15.2198510  49.5183350
  48.9160270  15.5393120  50.4134870  49.8464560  15.6211020  49.2220630
  51.8093310  32.3670040  49.0002040  52.6018630  31.8719270  48.7928000
  52.1026460  33.0460180  49.6077650  47.9352970  23.2390980  19.8818090
  47.8547020  22.3245590  19.6109800  47.5217390  23.7358050  19.1757800
  46.0671010  25.0170000  21.7627360  45.2913110  24.5370440  22.0525930
  46.7183940  24.3375650  21.5883520  50.0878440  29.4230190  20.5426490
  49.6259970  28.6517430  20.8713660  50.9003990  29.4496260  21.0478940
  46.5385170  20.4997570  21.9966450  46.9149990  19.6269450  21.8840120
  46.4404680  20.8356270  21.1056890  40.6690180  18.8723200  17.4583890
  40.7756930  19.7726930  17.7652650  39.7582540  18.8241170  17.1678540
  50.3209290  17.9948010  18.9294790  51.1418910  17.5044580  18.9720270
  50.3543370  18.5845670  19.6826630  42.5097910  21.8409570  21.7909070
  43.0176130  22.3390540  22.4314090  43.0411150  21.0644770  21.6148430
  54.6108840  20.0114760  25.4938420  53.9061010  20.3996470  24.9753530
  54.8766760  20.7065050  26.0959350  47.1805100  26.5927440  17.5562390
  46.5622370  27.0576890  16.9925110  47.6928350  27.2854920  17.9731900
  50.5570770  19.9348390  21.7022330  49.8526340  20.2233280  22.2825440
  50.9182930  20.7448500  21.3421890  52.1733550  29.5523520  23.9649810
  51.4897070  30.2222630  23.9566480  52.7127840  29.7504170  23.1994670
  53.6257690  19.3803180  22.0931540  52.6782600  19.4142160  22.2246970
  53.9507680  20.1942130  22.4780900  44.1577230  15.6800360  20.3887530
  44.4652210  15.1247250  19.6723030  43.2277930  15.8144820  20.2060520
  51.0037710  28.1183870  17.7685160  50.8934040  27.1758200  17.8934580
  51.0005960  28.4799510  18.6547920  49.1077730  26.2997490  24.0077600
  49.5246520  26.0857600  23.1731060  49.8317550  26.5570280  24.5786220
  46.5457990  23.7449190  17.1247650  45.6187270  23.6786570  17.3536120
  46.6982810  24.6829320  17.0102890  46.5327070  20.0166190  14.1214810
  45.5930740  20.1780150  14.2067270  46.8510330  20.7351870  13.5750800
  53.0539830  24.6984710  24.0993840  52.2258460  24.7677800  23.6243970
  53.6490310  25.2839020  23.6309670  50.5755280  25.3069490  17.6282900
  49.9567700  24.9689040  16.9809200  50.5579730  24.6629250  18.3362090
  50.0181840  21.4854030  25.0448710  49.6053020  22.3107740  25.2988700
  49.2857790  20.8999070  24.8525070  48.7519980  24.5456300  14.6355650
  49.1913260  23.7078730  14.4893470  49.4648400  25.1785700  14.7219790
  46.8615360  29.4852370  18.6036890  47.3011270  30.2276700  18.1892280
  46.8002250  29.7278940  19.5275850  52.3337120  15.7999110  12.9496690
  52.0209780  15.8925940  13.8495760  53.0949590  16.3780140  12.8994120
  49.5285540  32.4721490  15.9599900  49.3686680  32.1824430  16.8581730
  49.3632250  31.6961620  15.4245130  49.2311670  29.9809050  14.5197900
  48.5376830  29.9786340  13.8600180  49.9734530  29.5568370  14.0892070
  48.7961600  31.6071760  18.5946390  49.2518550  30.8261140  18.9085010
  49.1354120  32.3178580  19.1387570  53.5438410  20.5370610  28.9270830
  52.9282680  21.0450280  28.3986290  53.2234830  19.6368940  28.8696770
  41.3182920  16.5093980  20.7897700  40.8751070  17.2903520  20.4582220
  41.8767910  16.8323870  21.4968640  44.4341740  16.1304680  15.6703530
  43.8095920  16.1264550  16.3956840  44.3471860  15.2635640  15.2739500
  43.3558820  17.0541310  22.6487300  43.6531150  17.9604140  22.5679320
  43.9044380  16.5660090  22.0346870  41.1097140  21.6327550  18.5178950
  40.8838060  21.4164720  19.4225570  40.3289670  22.0656010  18.1724920
  48.3394900  21.6390920  17.1169600  47.7403790  22.3626720  16.9333220
  48.8874510  21.5767700  16.3346050  46.9459770  20.2754460  19.1472880
  47.3389340  20.5926660  18.3341570  47.3076620  19.3966340  19.2617400
  36.1694170  20.8075380  12.5805800  36.0868840  21.7506140  12.7220790
  35.8177230  20.6650290  11.7018150  47.5314910  22.8660210  23.2423660
  46.7996030  23.3747020  23.5913760  47.1339250  22.0490190  22.9412440
  43.9692300  19.5414410  21.6476150  43.9728360  19.1004360  20.7980690
  44.8643420  19.8631740  21.7547970  44.0312450  20.5426490  14.6382910
  44.1525270  20.5012970  15.5868730  43.6460960  21.4050640  14.4829640
  47.9940820  18.3193890  22.6546600  48.0113560  18.7702540  23.4988450
  47.7456400  17.4199530  22.8680040  43.0433950  22.8527630  14.0366210
  42.4750850  22.4045880  13.4102120  43.7522950  23.2120410  13.5031360
  44.2700270  23.6016190  23.3941560  44.6370400  23.1274760  24.1402900
  44.0805330  24.4757760  23.7349900  51.3469410  25.8451180  22.1019010
  52.0668530  26.3406470  21.7115120  51.1451230  25.1669070  21.4572880
  46.8079350  17.2389140  16.2448400  45.9943960  16.7402310  16.1693710
  46.6141300  18.0787390  15.8284750  49.5227740  21.6108790  14.5410560
  50.4107360  21.9226020  14.3661900  49.4932830  20.7381040  14.1491140
  45.5188330  27.7832480  15.2198730  45.8604030  28.5274710  14.7242050
  44.6901040  28.0963600  15.5823560  51.7942010  22.9220630  14.0090420
  51.7105730  23.3534850  13.1586860  52.5136200  23.3818980  14.4417240
  52.8716150  25.3788150  27.0860390  52.1464340  25.9716930  26.8889780
  53.3991610  25.3711690  26.2873760  52.8229260  29.7762890  16.7372550
  52.1805420  29.1218510  17.0116270  52.4359920  30.1817980  15.9613220
  48.4015740  27.1048320  20.5844240  48.7539560  26.5076450  19.9245610
  47.5178070  26.7792550  20.7552490  44.4879020  27.8646010  17.9914650
  45.1750150  28.4115220  18.3722240  43.7011440  28.4086740  18.0264260
  43.7906230  24.8692040  17.6040010  44.2469010  25.6797290  17.8300200
  43.4394440  24.5515180  18.4358500  51.2126640  28.6679350  13.2748900
  50.9864220  27.9509790  13.8673540  50.8222840  28.4191790  12.4370650
  50.7942890  26.5851290  14.9363060  50.5064590  27.0463980  15.7240940
  51.5895060  26.1249060  15.2047280  51.5512750  18.4200060  16.0958240
  50.9225910  18.5245730  15.3816470  51.0564670  18.6396840  16.8852120
  45.9970890  30.1405650  13.5292220  46.0982870  29.9369640  12.5994200
  45.0972630  29.8863930  13.7340000  43.5196780  20.6986010  17.5116120
  42.8112930  21.1672350  17.9529730  43.8041260  20.0408020  18.1461310
  47.5512210  17.4236670  18.9511910  47.4279990  17.4422800  18.0021420
  48.4996770  17.4715610  19.0710310  41.7231800  19.0071090  14.8866830
  42.5722330  19.4441240  14.8207020  41.3563070  19.3191350  15.7138890
  52.3519570  18.3350670  26.3537040  51.8493170  19.0756070  26.6930850
  53.1676230  18.7234670  26.0373830  50.6441580  23.5783850  19.7998400
  49.7031720  23.5934080  19.9746090  50.9585650  22.7919810  20.2458700
  52.6467160  30.7492700  21.4752660  52.7714580  31.5723870  21.9476470
  53.5132720  30.5383430  21.1276810  52.2817170  31.2424350  14.3932100
  51.9958680  30.8289490  13.5786280  52.0836720  32.1712060  14.2732620
  43.7464400  27.2357630  12.8337710  43.6415040  26.6209980  13.5599090
  43.5788620  26.7123520  12.0500720  46.9867130  26.2977660  13.4379700
  46.4377230  26.7446960  14.0822440  47.6086390  25.7926910  13.9617370
  42.6542250  25.2568580  15.3345000  43.0758670  25.0908450  16.1776390
  42.7793090  24.4468810  14.8400140  45.1669890  24.2806190  12.5822100
  45.6875550  23.5655210  12.2163250  45.8138290  24.9192060  12.8822610
  41.5501150  21.3301810  12.2803160  41.3490210  20.4669170  12.6416500
  41.3793200  21.2435170  11.3424760  49.0289460  16.1410040  14.8090040
  49.3091750  15.2977940  15.1649460  48.2555190  16.3733150  15.3228790
  40.3483950  18.4302430  12.2681040  40.6509850  18.4369860  11.3600190
  41.0878540  18.0800290  12.7648700  43.5668880  17.3737050  13.2537240
  43.2190880  16.6961040  12.6739690  43.7681650  16.9126560  14.0680630
  45.7317920  32.3617800  14.8723840  46.6268710  32.7002770  14.8942600
  45.7635550  31.6397210  14.2448120  53.9513720  28.6339290  12.9159750
  53.1206680  28.7015940  13.3866980  54.1285550  29.5243410  12.6126610
  53.4070180  25.3786770  15.4193950  54.1689090  25.9483420  15.5253640
  53.4224550  24.8113970  16.1902260  54.4130150  26.2336870  20.2635880
  54.7838980  25.4504190  19.8571850  55.0532080  26.9225970  20.0853180
  51.3963910  27.6173450  25.6766200  50.5823750  28.0470610  25.9391990
  51.8038110  28.2291860  25.0635250  53.4589350  25.6721140  12.5766470
  53.7338190  26.5800020  12.4485690  53.2700090  25.6083670  13.5128460
  49.8564960  18.6965990  13.8720100  50.2749840  18.5096970  13.0316760
  49.5501020  17.8445040  14.1823030  53.3554690  23.6090130  17.5695900
  52.9798290  22.8418060  17.1377190  52.6257810  23.9912830  18.0570830
  52.7454310  22.7561650  27.2035420  52.5140400  22.5274400  26.3033370
  53.0058860  23.6761200  27.1580310  52.6305650  21.8347620  20.8703140
  53.1543130  21.3410270  20.2393310  53.2165070  21.9697980  21.6150710
  52.8095370  21.9187490  24.3922690  51.8598080  21.8851030  24.5067680
  52.9908380  22.8287600  24.1572460  38.6639810  20.1689170  13.5021320
  39.3731510  19.7472390  13.0168600  37.9479750  20.2364400  12.8704670
  38.3113970  16.2228500  12.5423970  39.0342100  16.7637440  12.8605190
  38.5838490  15.9491920  11.6665510  52.1205620  21.0920970  16.8095550
  52.6164740  20.8591840  17.5944430  51.9221690  20.2532810  16.3933190
  53.5492780  19.7281920  19.3433230  53.4392060  19.5737960  20.2815500
  54.3100370  19.2002860  19.1008640  51.8958500  15.6676050  25.8016230
  52.5330720  16.2810190  26.1675420  52.0433390  15.7036710  24.8565460
  54.4383050  17.5589840  12.5839370  55.3632360  17.4271020  12.3757660
  54.4158840  17.6382660  13.5375820  54.5121540  18.3300500  15.2096080
  53.7173040  18.2645620  15.7388990  54.7164820  19.2651140  15.1981430
  51.4539960  32.3692050  19.2034470  52.0499030  32.0476620  18.5268890
  51.7118110  31.8963870  19.9947740  48.6445580  15.0404440  24.6752910
  47.7705420  15.3739550  24.4725840  48.5356330  14.5677620  25.5004780
  52.0052170  33.0187350  23.0332200  51.5455140  33.7703160  22.6590220
  51.3764630  32.2993820  22.9747000  46.3920400  15.9574280  23.6145820
  45.6092190  16.4319780  23.8942580  46.0983330  15.0529110  23.5059000
  50.9441470  16.6597380  21.6594910  51.3849560  16.6042480  20.8116510
  50.6749060  17.5755390  21.7305090  52.8080040  16.2912620  19.6703730
  52.7468440  15.3473840  19.5234750  53.5872070  16.3992710  20.2157190
  44.2774620  18.3761030  19.1261850  43.4649130  18.0017920  18.7857730
  44.7816260  17.6206110  19.4283040  48.7799600  15.0403480  20.3644920
  49.3828970  15.6123690  20.8393440  48.0392590  15.6042920  20.1418820
  51.9234200  15.4425040  15.6385200  52.1184830  16.3408490  15.9052630
  51.1364070  15.2112120  16.1318150  40.1085960  16.7885810  14.6761510
  40.6378720  16.0015610  14.5469460  40.7414280  17.4677000  14.9097040
  42.3023800  16.5260950  17.7306900  41.6726540  15.8248260  17.8977030
  41.7628940  17.2865080  17.5140060  53.4760810  32.6825750  17.3991760
  53.6513000  31.9963490  16.7552680  52.7782380  33.2072800  17.0068430
  46.0671010  25.0170000   2.9883870  45.2913110  24.5370440   3.2782440
  46.7183940  24.3375650   2.8140030  40.0836840  25.3289810   3.8659630
  39.2521720  25.0738520   4.2656140  40.6917820  25.4000580   4.6017550
  50.0878440  29.4230190   1.7683000  49.6259970  28.6517430   2.0970170
  50.9003990  29.4496260   2.2735450  40.0638100  29.3629900   4.0617650
  40.3666140  28.4727640   3.8827870  40.8081690  29.9200120   3.8339900
  36.4561800  22.8897350   3.5341720  37.0277910  22.1219550   3.5345360
  36.4563340  23.1886110   2.6248330  45.5080000  27.6927190   2.9954030
  45.4388280  26.7517130   2.8343160  46.2699860  27.7828600   3.5676600
  37.6986670  18.2981710   5.3210650  37.5189510  17.4007460   5.6013410
  37.2966750  18.8453580   5.9957600  46.5385170  20.4997570   3.2222960
  46.9149990  19.6269450   3.1096630  46.4404680  20.8356270   2.3313400
  38.3173340  20.7942210   3.9292990  38.9983450  21.0580580   4.5480390
  38.0021390  19.9543080   4.2631000  42.5097910  21.8409570   3.0165580
  43.0176130  22.3390540   3.6570600  43.0411150  21.0644770   2.8404940
  54.6108840  20.0114760   6.7194930  53.9061010  20.3996470   6.2010040
  54.8766760  20.7065050   7.3215860  40.7934010  16.4808130   7.2829000
  40.7952450  16.9980520   6.4774900  39.9638320  16.0038310   7.2598930
  42.0436860  26.1203310   5.4602500  41.7106240  26.7472230   6.1023570
  42.2203540  26.6465190   4.6804170  50.5570770  19.9348390   2.9278840
  49.8526340  20.2233280   3.5081950  50.9182930  20.7448500   2.5678400
  40.4749340  18.1918090   5.2899450  40.8166150  19.0360140   4.9953320
  39.5365150  18.3401830   5.4064790  41.2555960  28.0884110   7.2751680
  41.8729960  28.7635190   6.9936130  40.3949080  28.4972090   7.1839180
  52.1733550  29.5523520   5.1906320  51.4897070  30.2222630   5.1822990
  52.7127840  29.7504170   4.4251180  53.6257690  19.3803180   3.3188050
  52.6782600  19.4142160   3.4503480  53.9507680  20.1942130   3.7037410
  49.7092290  31.3967650   3.9051500  49.7219450  30.9929940   3.0373760
  49.1567510  32.1714940   3.8012930  49.1077730  26.2997490   5.2334110
  49.5246520  26.0857600   4.3987570  49.8317550  26.5570280   5.8042730
  53.0539830  24.6984710   5.3250350  52.2258460  24.7677800   4.8500480
  53.6490310  25.2839020   4.8566180  50.0181840  21.4854030   6.2705220
  49.6053020  22.3107740   6.5245210  49.2857790  20.8999070   6.0781580
  42.6196330  27.9581490   3.2963100  42.3224620  27.3526960   2.6170880
  43.5696150  27.9958800   3.1852460  40.8643250  21.0457140   4.9122930
  41.4157840  21.1552480   4.1376180  41.3786760  21.4194740   5.6278160
  50.7081940  31.5313360   6.9586200  50.2312500  32.3385550   6.7658810
  50.0243730  30.8791690   7.1112410  41.7114760  27.6963180   9.9470900
  40.8143290  27.9203150  10.1944300  41.7367630  27.8198120   8.9982300
  40.5385980  24.5676500   8.5228270  40.3993750  25.4399300   8.8915670
  39.6567340  24.2249310   8.3776210  42.3366330  30.5098200  10.7313420
  42.3081760  30.9141150   9.8641850  42.1731300  29.5808560  10.5685020
  54.2881150  31.2925300  12.0277590  54.7640870  31.7708190  12.7066670
  54.9088310  31.2242790  11.3023090  36.4904630  26.3374050   4.4399180
  36.5685050  26.4722820   3.4954900  37.1046310  25.6289940   4.6327300
  53.6914400  28.4838150   9.1877600  53.8177460  28.2450030   8.2694780
  53.7335780  27.6522690   9.6599680  47.5531140  32.1866150   7.7572410
  48.0675810  32.0974160   8.5594840  46.7100220  32.5325850   8.0500320
  53.5438410  20.5370610  10.1527340  52.9282680  21.0450280   9.6242800
  53.2234830  19.6368940  10.0953280  36.5464150  27.3788220   6.9793640
  36.7095190  26.9093580   6.1613010  37.0116600  26.8711780   7.6442480
  41.3182920  16.5093980   2.0154210  40.8751070  17.2903520   1.6838730
  41.8767910  16.8323870   2.7225150  45.6052730  19.3762500   7.6189530
  45.1432100  19.5845520   8.4309470  45.2030840  18.5621850   7.3160200
  50.6057240  20.5971450   8.7486190  49.7550830  20.2977200   9.0695260
  50.4459030  20.8413460   7.8370010  47.7006950  22.0973200  10.8484980
  48.0260360  21.2636950  10.5087210  48.4887280  22.6201720  10.9963310
  43.3558820  17.0541310   3.8743810  43.6531150  17.9604140   3.7935830
  43.9044380  16.5660090   3.2603380  43.5496350  22.5313130  10.4095730
  43.4539950  21.5907860  10.2596130  44.3928330  22.7528200  10.0143800
  38.6806890  18.9426800   8.5629510  38.2870280  19.7902010   8.7702290
  37.9925290  18.3053170   8.7538150  45.2551940  19.0261770  11.6326250
  44.5650260  18.8333970  12.2672340  45.9984240  19.3096410  12.1650550
  35.9823940  16.8655260   2.5959590  35.6936990  17.4358120   3.3084570
  36.7269700  16.3859710   2.9590820  47.5314910  22.8660210   4.4680170
  46.7996030  23.3747020   4.8170270  47.1339250  22.0490190   4.1668950
  43.9692300  19.5414410   2.8732660  43.9728360  19.1004360   2.0237200
  44.8643420  19.8631740   2.9804480  39.8194680  19.4240900   1.8326870
  39.4794730  19.9016130   2.5893920  39.0572000  18.9706020   1.4727970
  47.9940820  18.3193890   3.8803110  48.0113560  18.7702540   4.7244960
  47.7456400  17.4199530   4.0936550  51.4211570  15.7326070   9.7189490
  51.7457340  15.0015730  10.2447470  51.4568080  15.4139710   8.8170480
  38.1203130  26.7539650   9.1389450  37.7357920  26.1133320   9.7372410
  38.4315320  27.4575770   9.7084180  44.2700270  23.6016190   4.6198070
  44.6370400  23.1274760   5.3659410  44.0805330  24.4757760   4.9606410
  42.0599640  22.6424830   6.9382280  41.7556710  23.5216810   7.1632640
  43.0146100  22.7024620   6.9739720  51.3469410  25.8451180   3.3275520
  52.0668530  26.3406470   2.9371630  51.1451230  25.1669070   2.6829390
  46.7288210  25.9160240   9.2144520  46.6625520  24.9955910   8.9602110
  46.0993350  26.0135680   9.9289160  38.1163370  23.4827570   8.0853640
  37.7578310  24.1481420   8.6726980  37.8217930  22.6511120   8.4566260
  41.3176490  23.9411810  10.9693190  41.0176630  24.0868990  10.0721010
  42.0887730  23.3817100  10.8766580  46.6604940  28.7380810   8.9648320
  46.6749480  27.8061770   8.7467230  45.9530040  28.8240570   9.6038090
  52.8716150  25.3788150   8.3116900  52.1464340  25.9716930   8.1146290
  53.3991610  25.3711690   7.5130270  46.0938840  30.3798380   6.0588820
  46.7381060  30.5857760   6.7362240  46.4568280  29.6186780   5.6059670
  47.3670920  28.3830730   4.7766270  48.0093150  27.6823890   4.8898440
  47.8920270  29.1629170   4.5963160  49.1408540  29.1825630   7.9802330
  49.4764780  29.7692320   8.6580250  48.2208880  29.0518340   8.2100120
  36.6911940  16.9720810   8.7625740  35.9770460  17.1717730   9.3678350
  37.1106980  16.1960380   9.1340540  36.9784530  30.9601070   9.7492270
  37.0875650  30.0195810   9.6087660  36.3265090  31.2255820   9.1006000
  44.9697120  29.2316960  11.1490390  44.6493990  28.5126200  11.6936080
  44.2955480  29.9072030  11.2226450  48.1850720  19.4643120   6.5127190
  48.5531540  18.6438330   6.8406760  47.3248920  19.5245010   6.9282840
  45.1452710  22.1182710   6.7365160  45.6437960  22.5928530   7.4017010
  45.2875660  21.1946230   6.9435190  52.3519570  18.3350670   7.5793550
  51.8493170  19.0756070   7.9187360  53.1676230  18.7234670   7.2630340
  52.6467160  30.7492700   2.7009170  52.7714580  31.5723870   3.1732980
  53.5132720  30.5383430   2.3533320  40.1184690  32.8423910   2.3726300
  40.8547170  32.2939370   2.6434870  40.5025610  33.7079920   2.2332290
  47.9607600  28.1349850  11.5087290  47.3545760  28.1581450  10.7683040
  47.6561710  27.4032890  12.0454540  49.3907970  31.8630140  10.1196700
  50.3429720  31.7788160  10.0696940  49.2436190  32.5271850  10.7930490
  36.8440780  24.5143440  10.5047930  37.3479800  23.9350720  11.0764160
  36.1048200  24.7983670  11.0424300  43.8978720  25.9214430  10.0383450
  43.1324390  26.4899430   9.9538120  44.0794680  25.6290640   9.1451680
  51.0402070  27.6519760  10.5958470  51.7811540  27.9895520  10.0925930
  50.2774750  27.8211820  10.0428240  38.8763860  22.6573030  11.3998000
  38.9169200  22.3586900  12.3083230  39.7309360  23.0580640  11.2405520
  40.8169670  21.2365130   9.3672490  40.2866130  20.7456080   8.7395830
  41.4857740  21.6649330   8.8330420  49.7147730  25.7034590   9.1313680
  50.1288750  25.8579670   9.9804100  48.7798730  25.8289810   9.2939460
  50.1869900  23.0430750  11.1352830  50.7690670  22.2883070  11.0473310
  50.3631670  23.5738190  10.3584310  41.3041970  18.2027500   9.4469780
  41.2098840  17.5848250   8.7220650  40.7239360  18.9293790   9.2199690
  44.0703410  16.7600740   6.4797170  43.6220710  16.7825000   5.6342720
  43.4368610  16.3619760   7.0767470  44.4762960  25.6555070   7.1009610
  44.8951070  26.4987800   6.9285850  43.5571590  25.7927110   6.8716390
  46.8126860  23.3871250   8.4847450  46.9323070  22.7912390   9.2242290
  47.6720860  23.4240940   8.0648750  49.1514760  23.9408440   7.0609960
  48.6249980  24.4651060   6.4575100  49.4946100  24.5735830   7.6919690
  42.3270380  31.9608080   8.2167340  41.7891470  32.6854140   7.8976040
  42.5804340  31.4838420   7.4264680  43.5795630  19.9292600   9.7423270
  44.1695320  19.6208450  10.4301090  42.7615870  19.4572350   9.8983170
  48.3989060  19.5458410   9.9756290  47.7104580  18.8839950   9.9106280
  49.1195080  19.0996680  10.4204750  45.1832590  33.1959290   8.4753990
  45.1091290  34.0994430   8.7826360  44.2811430  32.8771190   8.4476060
  36.5859880  30.5233880   1.7787610  36.9162890  29.6554940   1.5466250
  37.0150880  30.7292400   2.6092570  37.0750090  31.3904470   4.5169240
  36.6381080  31.5705270   5.3493390  37.6427770  32.1479090   4.3750960
  52.7112270  30.8921470   8.8046550  52.1114260  30.9514030   8.0610470
  52.8406170  29.9526450   8.9343400  51.3963910  27.6173450   6.9022710
  50.5823750  28.0470610   7.1648500  51.8038110  28.2291860   6.2891760
  37.9450450  24.2877270   5.4161460  38.3123490  24.2004670   6.2957480
  37.3761270  23.5243820   5.3168320  52.7454310  22.7561650   8.4291930
  52.5140400  22.5274400   7.5289880  53.0058860  23.6761200   8.3836820
  37.4966450  21.1986360   9.3219880  36.6022500  21.1653120   9.6613590
  38.0364000  21.3973150  10.0871130  51.1842380  17.9818080  11.2071630
  52.0612560  17.9901480  11.5905630  51.1963220  17.2448920  10.5963980
  52.6305650  21.8347620   2.0959650  53.1543130  21.3410270   1.4649820
  53.2165070  21.9697980   2.8407220  52.8095370  21.9187490   5.6179200
  51.8598080  21.8851030   5.7324190  52.9908380  22.8287600   5.3828970
  38.0006160  15.4734690   3.6703100  38.6482350  14.9232070   3.2298260
  38.4208000  15.7277840   4.4918910  51.8958500  15.6676050   7.0272740
  52.5330720  16.2810190   7.3931930  52.0433390  15.7036710   6.0821970
  37.7538160  15.6290360   6.4128420  37.4052980  16.0854180   7.1786600
  37.4225860  14.7347490   6.4950850  39.3602530  28.8009960  10.5781610
  39.3172160  28.4302870  11.4596070  39.4913540  29.7387530  10.7183430
  43.0608560  30.3569550   6.1791330  42.8199920  30.6244110   5.2921850
  44.0011200  30.5275280   6.2342190  45.2662980  16.8202240   9.9347840
  45.2051870  17.4124070  10.6843250  46.2063360  16.7128200   9.7898100
  47.9037540  16.4772300   9.5740130  48.5177950  16.7951590   8.9121210
  48.4487100  15.9920890  10.1935990  54.3212720  32.3763930   6.9801970
  53.8271000  32.7732800   6.2629100  53.7126010  31.7513140   7.3739250
  38.4258800  15.1566560   9.6879190  38.9741790  14.9754610   8.9245300
  38.4914110  14.3660670  10.2235500  39.1990560  31.7472210   7.6979390
  38.6050880  31.6156910   8.4369430  39.1914400  30.9110350   7.2321490
  48.6445580  15.0404440   5.9009420  47.7705420  15.3739550   5.6982350
  48.5356330  14.5677620   6.7261290  49.5517560  17.2475310   7.2851140
  49.2230920  16.4327070   6.9052870  50.4999860  17.2045120   7.1616830
  52.0052170  33.0187350   4.2588710  51.5455140  33.7703160   3.8846730
  51.3764630  32.2993820   4.2003510  38.8302790  29.1130590   6.6487430
  38.1036850  28.4935880   6.5813380  38.8911940  29.5071200   5.7785510
  42.4347890  31.3275590   3.4336840  42.9512910  30.7162950   2.9085100
  43.0845270  31.8304370   3.9247850  45.1743390  32.2184080   4.2605820
  45.4621200  31.9638380   3.3838830  45.6866610  31.6661440   4.8511390
  46.3920400  15.9574280   4.8402330  45.6092190  16.4319780   5.1199090
  46.0983330  15.0529110   4.7315510  50.9441470  16.6597380   2.8851420
  51.3849560  16.6042480   2.0373020  50.6749060  17.5755390   2.9561600
  45.2415750  33.1400180  11.6274020  46.1683060  32.9044450  11.6709980
  45.2266180  33.9672180  11.1460050  42.4279360  15.8044930  11.3915900
  42.1463630  16.3078530  10.6276720  42.8099060  15.0066680  11.0258030
  49.0294820  15.2198510  11.9696370  48.9160270  15.5393120  12.8647890
  49.8464560  15.6211020  11.6733650  51.8093310  32.3670040  11.4515060
  52.6018630  31.8719270  11.2441020  52.1026460  33.0460180  12.0590670
  47.9352970   4.4647490  57.4305070  47.8547020   3.5502100  57.1596780
  47.5217390   4.9614560  56.7244780  46.0671010   6.2426510  59.3114340
  45.2913110   5.7626950  59.6012910  46.7183940   5.5632160  59.1370500
  50.0878440  10.6486700  58.0913470  49.6259970   9.8773940  58.4200640
  50.9003990  10.6752770  58.5965920  36.4561800   4.1153860  59.8572190
  37.0277910   3.3476060  59.8575830  36.4563340   4.4142620  58.9478800
  46.3141750  12.9344710  57.7117460  45.6953190  13.3902210  57.1411900
  47.1693530  13.0896170  57.3107160  45.5080000   8.9183700  59.3184500
  45.4388280   7.9773640  59.1573630  46.2699860   9.0085110  59.8907070
  42.5097910   3.0666080  59.3396050  43.0176130   3.5647050  59.9801070
  43.0411150   2.2901280  59.1635410  47.1805100   7.8183950  55.1049370
  46.5622370   8.2833400  54.5412090  47.6928350   8.5111430  55.5218880
  36.5488300   8.5040480  52.4789000  36.1716280   8.9927580  51.7473900
  36.8061370   9.1765760  53.1095530  49.7092290  12.6224160  60.2281970
  49.7219450  12.2186450  59.3604230  49.1567510  13.3971450  60.1243400
  51.0037710   9.3440380  55.3172140  50.8934040   8.4014710  55.4421560
  51.0005960   9.7056020  56.2034900  46.5457990   4.9705700  54.6734630
  45.6187270   4.9043080  54.9023100  46.6982810   5.9085830  54.5589870
  50.5755280   6.5326000  55.1769880  49.9567700   6.1945550  54.5296180
  50.5579730   5.8885760  55.8849070  42.1514630   5.4970440  57.4554360
  41.7471630   4.7847690  56.9600260  42.2377750   5.1523680  58.3442400
  42.6196330   9.1838000  59.6193570  42.3224620   8.5783470  58.9401350
  43.5696150   9.2215310  59.5082930  48.7519980   5.7712810  52.1842630
  49.1913260   4.9335240  52.0380450  49.4648400   6.4042210  52.2706770
  46.8615360  10.7108880  56.1523870  47.3011270  11.4533210  55.7379260
  46.8002250  10.9535450  57.0762830  38.8519260   4.3915420  54.9561010
  38.7316860   5.1177510  54.3442280  38.5420150   3.6218330  54.4788920
  37.7352260   9.2630750  57.1735830  37.3280340   9.4045340  56.3189430
  38.6265270   8.9790910  56.9707040  49.5285540  13.6978000  53.5086880
  49.3686680  13.4080940  54.4068710  49.3632250  12.9218130  52.9732110
  42.0073920  13.4776530  55.2858500  41.8316400  12.5612070  55.0726300
  41.1529660  13.8363820  55.5256300  49.2311670  11.2065560  52.0684880
  48.5376830  11.2042850  51.4087160  49.9734530  10.7824880  51.6379050
  48.7961600  12.8328270  56.1433370  49.2518550  12.0517650  56.4571990
  49.1354120  13.5435090  56.6874550  41.1097140   2.8584060  56.0665930
  40.8838060   2.6421230  56.9712550  40.3289670   3.2912520  55.7211900
  48.3394900   2.8647430  54.6656580  47.7403790   3.5883230  54.4820200
  48.8874510   2.8024210  53.8833030  36.1694170   2.0331890  50.1292780
  36.0868840   2.9762650  50.2707770  35.8177230   1.8906800  49.2505130
  44.0312450   1.7683000  52.1869890  44.1525270   1.7269480  53.1355710
  43.6460960   2.6307150  52.0316620  43.0433950   4.0784140  51.5853190
  42.4750850   3.6302390  50.9589100  43.7522950   4.4376920  51.0518340
  40.5881430   8.0742330  53.8579600  39.8143690   7.5339950  53.6978320
  41.3176060   7.5548940  53.5197360  51.3469410   7.0707690  59.6505990
  52.0668530   7.5662980  59.2602100  51.1451230   6.3925580  59.0059860
  49.5227740   2.8365300  52.0897540  50.4107360   3.1482530  51.9148880
  49.4932830   1.9637550  51.6978120  40.6318830   7.7422710  57.4958410
  41.1497500   6.9390970  57.4415300  40.1802850   7.6801850  58.3375240
  45.5188330   9.0088990  52.7685710  45.8604030   9.7531220  52.2729030
  44.6901040   9.3220110  53.1310540  51.7942010   4.1477140  51.5577400
  51.7105730   4.5791360  50.7073840  52.5136200   4.6075490  51.9904220
  52.8229260  11.0019400  54.2859530  52.1805420  10.3475020  54.5603250
  52.4359920  11.4074490  53.5100200  48.4015740   8.3304830  58.1331220
  48.7539560   7.7332960  57.4732590  47.5178070   8.0049060  58.3039470
  44.4879020   9.0902520  55.5401630  45.1750150   9.6371730  55.9209220
  43.7011440   9.6343250  55.5751240  36.6271420   4.7075340  51.0318710
  37.4966270   4.9900140  51.3154630  36.1361740   5.5211210  50.9167520
  43.7906230   6.0948550  55.1526990  44.2469010   6.9053800  55.3787180
  43.4394440   5.7771690  55.9845480  51.2126640   9.8935860  50.8235880
  50.9864220   9.1766300  51.4160520  50.8222840   9.6448300  49.9857630
  36.9942670  13.9202720  51.5980340  37.3540310  14.5192060  50.9437610
  36.8535010  14.4662610  52.3715370  50.7942890   7.8107800  52.4850040
  50.5064590   8.2720490  53.2727920  51.5895060   7.3505570  52.7534260
  43.0111290  11.3033920  52.4154010  43.0021390  12.0363610  51.7998520
  42.0909650  11.0565500  52.5080970  38.6117930   6.5248810  53.1600770
  38.0045880   7.2647710  53.1696070  39.0867280   6.6148170  52.3338970
  45.9970890  11.3662160  51.0779200  46.0982870  11.1626150  50.1481180
  45.0972630  11.1120440  51.2826980  44.6389000  13.8848480  55.7726870
  44.8930500  13.8469870  54.8506240  43.6901480  13.7581810  55.7655120
  50.6441580   4.8040360  57.3485380  49.7031720   4.8190590  57.5233070
  50.9585650   4.0176320  57.7945680  40.6223220   6.4859960  50.9089340
  41.3886490   6.3741320  51.4714770  40.6997910   5.7897930  50.2566110
  39.3169980   3.9185030  51.5922230  39.3973570   2.9712540  51.7039630
  40.2089730   4.2491910  51.6982890  52.6467160  11.9749210  59.0239640
  52.7714580  12.7980380  59.4963450  53.5132720  11.7639940  58.6763790
  40.1184690  14.0680420  58.6956770  40.8547170  13.5195880  58.9665340
  40.5025610  14.9336430  58.5562760  37.0030170  10.1353990  54.5698280
  36.0769950  10.3775130  54.5603690  37.4686600  10.9628250  54.4483030
  43.2287000  13.2410730  50.5182340  44.0215610  13.5299560  50.0664130
  42.7091350  12.8102900  49.8394820  52.2817170  12.4680860  51.9419080
  51.9958680  12.0546000  51.1273260  52.0836720  13.3968570  51.8219600
  43.7464400   8.4614140  50.3824690  43.6415040   7.8466490  51.1086070
  43.5788620   7.9380030  49.5987700  46.9867130   7.5234170  50.9866680
  46.4377230   7.9703470  51.6309420  47.6086390   7.0183420  51.5104350
  42.6542250   6.4825090  52.8831980  43.0758670   6.3164960  53.7263370
  42.7793090   5.6725320  52.3887120  45.1669890   5.5062700  50.1309080
  45.6875550   4.7911720  49.7650230  45.8138290   6.1448570  50.4309590
  41.5501150   2.5558320  49.8290140  41.3490210   1.6925680  50.1903480
  41.3793200   2.4691680  48.8911740  45.7317920  13.5874310  52.4210820
  46.6268710  13.9259280  52.4429580  45.7635550  12.8653720  51.7935100
  39.3714080   8.9601360  50.6497820  39.8088950   9.5031030  51.3055400
  39.8561810   8.1348310  50.6594160  36.5859880  11.7490390  58.1018080
  36.9162890  10.8811450  57.8696720  37.0150880  11.9548910  58.9323040
  41.1821800  10.0799400  55.7620050  40.8817340   9.9564370  56.6623960
  41.0759290   9.2207990  55.3535780  53.9513720   9.8595800  50.4646730
  53.1206680   9.9272450  50.9353960  54.1285550  10.7499920  50.1613590
  53.4070180   6.6043280  52.9680930  54.1689090   7.1739930  53.0740620
  53.4224550   6.0370480  53.7389240  36.9074520   5.1281210  57.1988590
  36.2523360   4.8592850  56.5548290  37.7452470   5.0185690  56.7490570
  54.4130150   7.4593380  57.8122860  54.7838980   6.6760700  57.4058830
  55.0532080   8.1482480  57.6340160  53.4589350   6.8977650  50.1253450
  53.7338190   7.8056530  49.9972670  53.2700090   6.8340180  51.0615440
  53.3554690   4.8346640  55.1182880  52.9798290   4.0674570  54.6864170
  52.6257810   5.2169340  55.6057810  36.1212600   2.3380140  53.1413920
  35.2176680   2.6010340  52.9665580  36.6053220   2.6091310  52.3613880
  52.6305650   3.0604130  58.4190120  53.1543130   2.5666780  57.7880290
  53.2165070   3.1954490  59.1637690  51.4539960  13.5948560  56.7521450
  52.0499030  13.2733130  56.0755870  51.7118110  13.1220380  57.5434720
  42.4347890  12.5532100  59.7567310  42.9512910  11.9419460  59.2315570
  43.0845270  13.0560880  60.2478320  37.1132790  13.6561490  56.1814660
  36.9454830  13.0232170  56.8796550  36.2467300  13.8620890  55.8308850
  38.7195490  12.3494720  53.6264800  38.1943110  12.7302750  52.9226760
  38.6440070  12.9745490  54.3474510  53.4760810  13.9082260  54.9478740
  53.6513000  13.2220000  54.3039660  52.7782380  14.4329310  54.5555410
  41.3188460  14.2977100  52.5014050  42.0507280  14.0136380  51.9537940
  41.5782130  14.0590380  53.3913430  40.4803250  10.4141830  52.5060380
  39.8512130  10.8826930  53.0546210  40.5951080   9.5691050  52.9406570
  47.9352970   4.4647490  38.6561580  47.8547020   3.5502100  38.3853290
  47.5217390   4.9614560  37.9501290  46.0671010   6.2426510  40.5370850
  45.2913110   5.7626950  40.8269420  46.7183940   5.5632160  40.3627010
  40.0836840   6.5546320  41.4146610  39.2521720   6.2995030  41.8143120
  40.6917820   6.6257090  42.1504530  50.0878440  10.6486700  39.3169980
  49.6259970   9.8773940  39.6457150  50.9003990  10.6752770  39.8222430
  40.0638100  10.5886410  41.6104630  40.3666140   9.6984150  41.4314850
  40.8081690  11.1456630  41.3826880  36.4561800   4.1153860  41.0828700
  37.0277910   3.3476060  41.0832340  36.4563340   4.4142620  40.1735310
  45.5080000   8.9183700  40.5441010  45.4388280   7.9773640  40.3830140
  46.2699860   9.0085110  41.1163580  42.5097910   3.0666080  40.5652560
  43.0176130   3.5647050  41.2057580  43.0411150   2.2901280  40.3891920
  47.1805100   7.8183950  36.3305880  46.5622370   8.2833400  35.7668600
  47.6928350   8.5111430  36.7475390  42.0436860   7.3459820  43.0089480
  41.7106240   7.9728740  43.6510550  42.2203540   7.8721700  42.2291150
  41.2555960   9.3140620  44.8238660  41.8729960   9.9891700  44.5423110
  40.3949080   9.7228600  44.7326160  36.5488300   8.5040480  33.7045510
  36.1716280   8.9927580  32.9730410  36.8061370   9.1765760  34.3352040
  52.1733550  10.7780030  42.7393300  51.4897070  11.4479140  42.7309970
  52.7127840  10.9760680  41.9738160  49.7092290  12.6224160  41.4538480
  49.7219450  12.2186450  40.5860740  49.1567510  13.3971450  41.3499910
  51.0037710   9.3440380  36.5428650  50.8934040   8.4014710  36.6678070
  51.0005960   9.7056020  37.4291410  49.1077730   7.5254000  42.7821090
  49.5246520   7.3114110  41.9474550  49.8317550   7.7826790  43.3529710
  46.5457990   4.9705700  35.8991140  45.6187270   4.9043080  36.1279610
  46.6982810   5.9085830  35.7846380  53.0539830   5.9241220  42.8737330
  52.2258460   5.9934310  42.3987460  53.6490310   6.5095530  42.4053160
  50.5755280   6.5326000  36.4026390  49.9567700   6.1945550  35.7552690
  50.5579730   5.8885760  37.1105580  50.0181840   2.7110540  43.8192200
  49.6053020   3.5364250  44.0732190  49.2857790   2.1255580  43.6268560
  42.1514630   5.4970440  38.6810870  41.7471630   4.7847690  38.1856770
  42.2377750   5.1523680  39.5698910  42.6196330   9.1838000  40.8450080
  42.3224620   8.5783470  40.1657860  43.5696150   9.2215310  40.7339440
  40.8643250   2.2713650  42.4609910  41.4157840   2.3808990  41.6863160
  41.3786760   2.6451250  43.1765140  50.7081940  12.7569870  44.5073180
  50.2312500  13.5642060  44.3145790  50.0243730  12.1048200  44.6599390
  41.7114760   8.9219690  47.4957880  40.8143290   9.1459660  47.7431280
  41.7367630   9.0454630  46.5469280  48.7519980   5.7712810  33.4099140
  49.1913260   4.9335240  33.2636960  49.4648400   6.4042210  33.4963280
  40.5385980   5.7933010  46.0715250  40.3993750   6.6655810  46.4402650
  39.6567340   5.4505820  45.9263190  46.8615360  10.7108880  37.3780380
  47.3011270  11.4533210  36.9635770  46.8002250  10.9535450  38.3019340
  42.3366330  11.7354710  48.2800400  42.3081760  12.1397660  47.4128830
  42.1731300  10.8065070  48.1172000  38.8519260   4.3915420  36.1817520
  38.7316860   5.1177510  35.5698790  38.5420150   3.6218330  35.7045430
  54.2881150  12.5181810  49.5764570  54.7640870  12.9964700  50.2553650
  54.9088310  12.4499300  48.8510070  36.4904630   7.5630560  41.9886160
  36.5685050   7.6979330  41.0441880  37.1046310   6.8546450  42.1814280
  37.7352260   9.2630750  38.3992340  37.3280340   9.4045340  37.5445940
  38.6265270   8.9790910  38.1963550  53.6914400   9.7094660  46.7364580
  53.8177460   9.4706540  45.8181760  53.7335780   8.8779200  47.2086660
  47.5531140  13.4122660  45.3059390  48.0675810  13.3230670  46.1081820
  46.7100220  13.7582360  45.5987300  42.0073920  13.4776530  36.5115010
  41.8316400  12.5612070  36.2982810  41.1529660  13.8363820  36.7512810
  36.5464150   8.6044730  44.5280620  36.7095190   8.1350090  43.7099990
  37.0116600   8.0968290  45.1929460  47.7006950   3.3229710  48.3971960
  48.0260360   2.4893460  48.0574190  48.4887280   3.8458230  48.5450290
  41.1097140   2.8584060  37.2922440  40.8838060   2.6421230  38.1969060
  40.3289670   3.2912520  36.9468410  48.3394900   2.8647430  35.8913090
  47.7403790   3.5883230  35.7076710  48.8874510   2.8024210  35.1089540
  43.5496350   3.7569640  47.9582710  43.4539950   2.8164370  47.8083110
  44.3928330   3.9784710  47.5630780  36.1694170   2.0331890  31.3549290
  36.0868840   2.9762650  31.4964280  35.8177230   1.8906800  30.4761640
  47.5314910   4.0916720  42.0167150  46.7996030   4.6003530  42.3657250
  47.1339250   3.2746700  41.7155930  44.0312450   1.7683000  33.4126400
  44.1525270   1.7269480  34.3612220  43.6460960   2.6307150  33.2573130
  43.0433950   4.0784140  32.8109700  42.4750850   3.6302390  32.1845610
  43.7522950   4.4376920  32.2774850  38.1203130   7.9796160  46.6876430
  37.7357920   7.3389830  47.2859390  38.4315320   8.6832280  47.2571160
  44.2700270   4.8272700  42.1685050  44.6370400   4.3531270  42.9146390
  44.0805330   5.7014270  42.5093390  42.0599640   3.8681340  44.4869260
  41.7556710   4.7473320  44.7119620  43.0146100   3.9281130  44.5226700
  40.5881430   8.0742330  35.0836110  39.8143690   7.5339950  34.9234830
  41.3176060   7.5548940  34.7453870  51.3469410   7.0707690  40.8762500
  52.0668530   7.5662980  40.4858610  51.1451230   6.3925580  40.2316370
  46.7288210   7.1416750  46.7631500  46.6625520   6.2212420  46.5089090
  46.0993350   7.2392190  47.4776140  49.5227740   2.8365300  33.3154050
  50.4107360   3.1482530  33.1405390  49.4932830   1.9637550  32.9234630
  40.6318830   7.7422710  38.7214920  41.1497500   6.9390970  38.6671810
  40.1802850   7.6801850  39.5631750  45.5188330   9.0088990  33.9942220
  45.8604030   9.7531220  33.4985540  44.6901040   9.3220110  34.3567050
  38.1163370   4.7084080  45.6340620  37.7578310   5.3737930  46.2213960
  37.8217930   3.8767630  46.0053240  41.3176490   5.1668320  48.5180170
  41.0176630   5.3125500  47.6207990  42.0887730   4.6073610  48.4253560
  46.6604940   9.9637320  46.5135300  46.6749480   9.0318280  46.2954210
  45.9530040  10.0497080  47.1525070  51.7942010   4.1477140  32.7833910
  51.7105730   4.5791360  31.9330350  52.5136200   4.6075490  33.2160730
  52.8716150   6.6044660  45.8603880  52.1464340   7.1973440  45.6633270
  53.3991610   6.5968200  45.0617250  52.8229260  11.0019400  35.5116040
  52.1805420  10.3475020  35.7859760  52.4359920  11.4074490  34.7356710
  48.4015740   8.3304830  39.3587730  48.7539560   7.7332960  38.6989100
  47.5178070   8.0049060  39.5295980  44.4879020   9.0902520  36.7658140
  45.1750150   9.6371730  37.1465730  43.7011440   9.6343250  36.8007750
  36.6271420   4.7075340  32.2575220  37.4966270   4.9900140  32.5411140
  36.1361740   5.5211210  32.1424030  43.7906230   6.0948550  36.3783500
  44.2469010   6.9053800  36.6043690  43.4394440   5.7771690  37.2101990
  46.0938840  11.6054890  43.6075800  46.7381060  11.8114270  44.2849220
  46.4568280  10.8443290  43.1546650  47.3670920   9.6087240  42.3253250
  48.0093150   8.9080400  42.4385420  47.8920270  10.3885680  42.1450140
  51.2126640   9.8935860  32.0492390  50.9864220   9.1766300  32.6417030
  50.8222840   9.6448300  31.2114140  49.1408540  10.4082140  45.5289310
  49.4764780  10.9948830  46.2067230  48.2208880  10.2774850  45.7587100
  50.7942890   7.8107800  33.7106550  50.5064590   8.2720490  34.4984430
  51.5895060   7.3505570  33.9790770  36.9784530  12.1857580  47.2979250
  37.0875650  11.2452320  47.1574640  36.3265090  12.4512330  46.6492980
  44.9697120  10.4573470  48.6977370  44.6493990   9.7382710  49.2423060
  44.2955480  11.1328540  48.7713430  43.0111290  11.3033920  33.6410520
  43.0021390  12.0363610  33.0255030  42.0909650  11.0565500  33.7337480
  38.6117930   6.5248810  34.3857280  38.0045880   7.2647710  34.3952580
  39.0867280   6.6148170  33.5595480  45.1452710   3.3439220  44.2852140
  45.6437960   3.8185040  44.9503990  45.2875660   2.4202740  44.4922170
  50.6441580   4.8040360  38.5741890  49.7031720   4.8190590  38.7489580
  50.9585650   4.0176320  39.0202190  40.6223220   6.4859960  32.1345850
  41.3886490   6.3741320  32.6971280  40.6997910   5.7897930  31.4822620
  39.3169980   3.9185030  32.8178740  39.3973570   2.9712540  32.9296140
  40.2089730   4.2491910  32.9239400  52.6467160  11.9749210  40.2496150
  52.7714580  12.7980380  40.7219960  53.5132720  11.7639940  39.9020300
  40.1184690  14.0680420  39.9213280  40.8547170  13.5195880  40.1921850
  40.5025610  14.9336430  39.7819270  37.0030170  10.1353990  35.7954790
  36.0769950  10.3775130  35.7860200  37.4686600  10.9628250  35.6739540
  39.1242970  13.2526490  49.1098860  39.9255700  13.5738540  49.5234260
  38.6094790  12.8922070  49.8318770  43.2287000  13.2410730  31.7438850
  44.0215610  13.5299560  31.2920640  42.7091350  12.8102900  31.0651330
  47.9607600   9.3606360  49.0574270  47.3545760   9.3837960  48.3170020
  47.6561710   8.6289400  49.5941520  49.3907970  13.0886650  47.6683680
  50.3429720  13.0044670  47.6183920  49.2436190  13.7528360  48.3417470
  52.2817170  12.4680860  33.1675590  51.9958680  12.0546000  32.3529770
  52.0836720  13.3968570  33.0476110  36.8440780   5.7399950  48.0534910
  37.3479800   5.1607230  48.6251140  36.1048200   6.0240180  48.5911280
  43.7464400   8.4614140  31.6081200  43.6415040   7.8466490  32.3342580
  43.5788620   7.9380030  30.8244210  43.8978720   7.1470940  47.5870430
  43.1324390   7.7155940  47.5025100  44.0794680   6.8547150  46.6938660
  46.9867130   7.5234170  32.2123190  46.4377230   7.9703470  32.8565930
  47.6086390   7.0183420  32.7360860  51.0402070   8.8776270  48.1445450
  51.7811540   9.2152030  47.6412910  50.2774750   9.0468330  47.5915220
  38.8763860   3.8829540  48.9484980  38.9169200   3.5843410  49.8570210
  39.7309360   4.2837150  48.7892500  42.6542250   6.4825090  34.1088490
  43.0758670   6.3164960  34.9519880  42.7793090   5.6725320  33.6143630
  40.8169670   2.4621640  46.9159470  40.2866130   1.9712590  46.2882810
  41.4857740   2.8905840  46.3817400  45.1669890   5.5062700  31.3565590
  45.6875550   4.7911720  30.9906740  45.8138290   6.1448570  31.6566100
  49.7147730   6.9291100  46.6800660  50.1288750   7.0836180  47.5291080
  48.7798730   7.0546320  46.8426440  50.1869900   4.2687260  48.6839810
  50.7690670   3.5139580  48.5960290  50.3631670   4.7994700  47.9071290
  44.4762960   6.8811580  44.6496590  44.8951070   7.7244310  44.4772830
  43.5571590   7.0183620  44.4203370  46.8126860   4.6127760  46.0334430
  46.9323070   4.0168900  46.7729270  47.6720860   4.6497450  45.6135730
  49.1514760   5.1664950  44.6096940  48.6249980   5.6907570  44.0062080
  49.4946100   5.7992340  45.2406670  41.5501150   2.5558320  31.0546650
  41.3490210   1.6925680  31.4159990  41.3793200   2.4691680  30.1168250
  42.3270380  13.1864590  45.7654320  41.7891470  13.9110650  45.4463020
  42.5804340  12.7094930  44.9751660  45.1832590  14.4215800  46.0240970
  45.1091290  15.3250940  46.3313340  44.2811430  14.1027700  45.9963040
  39.3714080   8.9601360  31.8754330  39.8088950   9.5031030  32.5311910
  39.8561810   8.1348310  31.8850670  36.5859880  11.7490390  39.3274590
  36.9162890  10.8811450  39.0953230  37.0150880  11.9548910  40.1579550
  41.1821800  10.0799400  36.9876560  40.8817340   9.9564370  37.8880470
  41.0759290   9.2207990  36.5792290  37.0750090  12.6160980  42.0656220
  36.6381080  12.7961780  42.8980370  37.6427770  13.3735600  41.9237940
  52.7112270  12.1177980  46.3533530  52.1114260  12.1770540  45.6097450
  52.8406170  11.1782960  46.4830380  53.9513720   9.8595800  31.6903240
  53.1206680   9.9272450  32.1610470  54.1285550  10.7499920  31.3870100
  53.4070180   6.6043280  34.1937440  54.1689090   7.1739930  34.2997130
  53.4224550   6.0370480  34.9645750  36.9074520   5.1281210  38.4245100
  36.2523360   4.8592850  37.7804800  37.7452470   5.0185690  37.9747080
  54.4130150   7.4593380  39.0379370  54.7838980   6.6760700  38.6315340
  55.0532080   8.1482480  38.8596670  51.3963910   8.8429960  44.4509690
  50.5823750   9.2727120  44.7135480  51.8038110   9.4548370  43.8378740
  53.4589350   6.8977650  31.3509960  53.7338190   7.8056530  31.2229180
  53.2700090   6.8340180  32.2871950  53.3554690   4.8346640  36.3439390
  52.9798290   4.0674570  35.9120680  52.6257810   5.2169340  36.8314320
  37.9450450   5.5133780  42.9648440  38.3123490   5.4261180  43.8444460
  37.3761270   4.7500330  42.8655300  52.7454310   3.9818160  45.9778910
  52.5140400   3.7530910  45.0776860  53.0058860   4.9017710  45.9323800
  37.4966450   2.4242870  46.8706860  36.6022500   2.3909630  47.2100570
  38.0364000   2.6229660  47.6358110  36.1212600   2.3380140  34.3670430
  35.2176680   2.6010340  34.1922090  36.6053220   2.6091310  33.5870390
  52.6305650   3.0604130  39.6446630  53.1543130   2.5666780  39.0136800
  53.2165070   3.1954490  40.3894200  52.8095370   3.1444000  43.1666180
  51.8598080   3.1107540  43.2811170  52.9908380   4.0544110  42.9315950
  51.4539960  13.5948560  37.9777960  52.0499030  13.2733130  37.3012380
  51.7118110  13.1220380  38.7691230  39.3602530  10.0266470  48.1268590
  39.3172160   9.6559380  49.0083050  39.4913540  10.9644040  48.2670410
  43.0608560  11.5826060  43.7278310  42.8199920  11.8500620  42.8408830
  44.0011200  11.7531790  43.7829170  54.3212720  13.6020440  44.5288950
  53.8271000  13.9989310  43.8116080  53.7126010  12.9769650  44.9226230
  39.1990560  12.9728720  45.2466370  38.6050880  12.8413420  45.9856410
  39.1914400  12.1366860  44.7808470  52.0052170  14.2443860  41.8075690
  51.5455140  14.9959670  41.4333710  51.3764630  13.5250330  41.7490490
  38.8302790  10.3387100  44.1974410  38.1036850   9.7192390  44.1300360
  38.8911940  10.7327710  43.3272490  42.4347890  12.5532100  40.9823820
  42.9512910  11.9419460  40.4572080  43.0845270  13.0560880  41.4734830
  45.1743390  13.4440590  41.8092800  45.4621200  13.1894890  40.9325810
  45.6866610  12.8917950  42.3998370  37.1132790  13.6561490  37.4071170
  36.9454830  13.0232170  38.1053060  36.2467300  13.8620890  37.0565360
  38.7195490  12.3494720  34.8521310  38.1943110  12.7302750  34.1483270
  38.6440070  12.9745490  35.5731020  45.2415750  14.3656690  49.1761000
  46.1683060  14.1300960  49.2196960  45.2266180  15.1928690  48.6947030
  53.4760810  13.9082260  36.1735250  53.6513000  13.2220000  35.5296170
  52.7782380  14.4329310  35.7811920  41.3188460  14.2977100  33.7270560
  42.0507280  14.0136380  33.1794450  41.5782130  14.0590380  34.6169940
  40.4803250  10.4141830  33.7316890  39.8512130  10.8826930  34.2802720
  40.5951080   9.5691050  34.1663080  51.8093310  13.5926550  49.0002040
  52.6018630  13.0975780  48.7928000  52.1026460  14.2716690  49.6077650
  47.9352970   4.4647490  19.8818090  47.8547020   3.5502100  19.6109800
  47.5217390   4.9614560  19.1757800  46.0671010   6.2426510  21.7627360
  45.2913110   5.7626950  22.0525930  46.7183940   5.5632160  21.5883520
  40.0836840   6.5546320  22.6403120  39.2521720   6.2995030  23.0399630
  40.6917820   6.6257090  23.3761040  50.0878440  10.6486700  20.5426490
  49.6259970   9.8773940  20.8713660  50.9003990  10.6752770  21.0478940
  40.0638100  10.5886410  22.8361140  40.3666140   9.6984150  22.6571360
  40.8081690  11.1456630  22.6083390  36.4561800   4.1153860  22.3085210
  37.0277910   3.3476060  22.3088850  36.4563340   4.4142620  21.3991820
  46.3141750  12.9344710  20.1630480  45.6953190  13.3902210  19.5924920
  47.1693530  13.0896170  19.7620180  45.5080000   8.9183700  21.7697520
  45.4388280   7.9773640  21.6086650  46.2699860   9.0085110  22.3420090
  42.5097910   3.0666080  21.7909070  43.0176130   3.5647050  22.4314090
  43.0411150   2.2901280  21.6148430  47.1805100   7.8183950  17.5562390
  46.5622370   8.2833400  16.9925110  47.6928350   8.5111430  17.9731900
  42.0436860   7.3459820  24.2345990  41.7106240   7.9728740  24.8767060
  42.2203540   7.8721700  23.4547660  41.2555960   9.3140620  26.0495170
  41.8729960   9.9891700  25.7679620  40.3949080   9.7228600  25.9582670
  36.5488300   8.5040480  14.9302020  36.1716280   8.9927580  14.1986920
  36.8061370   9.1765760  15.5608550  52.1733550  10.7780030  23.9649810
  51.4897070  11.4479140  23.9566480  52.7127840  10.9760680  23.1994670
  49.7092290  12.6224160  22.6794990  49.7219450  12.2186450  21.8117250
  49.1567510  13.3971450  22.5756420  51.0037710   9.3440380  17.7685160
  50.8934040   8.4014710  17.8934580  51.0005960   9.7056020  18.6547920
  49.1077730   7.5254000  24.0077600  49.5246520   7.3114110  23.1731060
  49.8317550   7.7826790  24.5786220  46.5457990   4.9705700  17.1247650
  45.6187270   4.9043080  17.3536120  46.6982810   5.9085830  17.0102890
  53.0539830   5.9241220  24.0993840  52.2258460   5.9934310  23.6243970
  53.6490310   6.5095530  23.6309670  50.5755280   6.5326000  17.6282900
  49.9567700   6.1945550  16.9809200  50.5579730   5.8885760  18.3362090
  50.0181840   2.7110540  25.0448710  49.6053020   3.5364250  25.2988700
  49.2857790   2.1255580  24.8525070  42.1514630   5.4970440  19.9067380
  41.7471630   4.7847690  19.4113280  42.2377750   5.1523680  20.7955420
  42.6196330   9.1838000  22.0706590  42.3224620   8.5783470  21.3914370
  43.5696150   9.2215310  21.9595950  40.8643250   2.2713650  23.6866420
  41.4157840   2.3808990  22.9119670  41.3786760   2.6451250  24.4021650
  50.7081940  12.7569870  25.7329690  50.2312500  13.5642060  25.5402300
  50.0243730  12.1048200  25.8855900  41.7114760   8.9219690  28.7214390
  40.8143290   9.1459660  28.9687790  41.7367630   9.0454630  27.7725790
  48.7519980   5.7712810  14.6355650  49.1913260   4.9335240  14.4893470
  49.4648400   6.4042210  14.7219790  40.5385980   5.7933010  27.2971760
  40.3993750   6.6655810  27.6659160  39.6567340   5.4505820  27.1519700
  46.8615360  10.7108880  18.6036890  47.3011270  11.4533210  18.1892280
  46.8002250  10.9535450  19.5275850  42.3366330  11.7354710  29.5056910
  42.3081760  12.1397660  28.6385340  42.1731300  10.8065070  29.3428510
  38.8519260   4.3915420  17.4074030  38.7316860   5.1177510  16.7955300
  38.5420150   3.6218330  16.9301940  54.2881150  12.5181810  30.8021080
  54.7640870  12.9964700  31.4810160  54.9088310  12.4499300  30.0766580
  36.4904630   7.5630560  23.2142670  36.5685050   7.6979330  22.2698390
  37.1046310   6.8546450  23.4070790  37.7352260   9.2630750  19.6248850
  37.3280340   9.4045340  18.7702450  38.6265270   8.9790910  19.4220060
  53.6914400   9.7094660  27.9621090  53.8177460   9.4706540  27.0438270
  53.7335780   8.8779200  28.4343170  47.5531140  13.4122660  26.5315900
  48.0675810  13.3230670  27.3338330  46.7100220  13.7582360  26.8243810
  49.5285540  13.6978000  15.9599900  49.3686680  13.4080940  16.8581730
  49.3632250  12.9218130  15.4245130  42.0073920  13.4776530  17.7371520
  41.8316400  12.5612070  17.5239320  41.1529660  13.8363820  17.9769320
  49.2311670  11.2065560  14.5197900  48.5376830  11.2042850  13.8600180
  49.9734530  10.7824880  14.0892070  48.7961600  12.8328270  18.5946390
  49.2518550  12.0517650  18.9085010  49.1354120  13.5435090  19.1387570
  36.5464150   8.6044730  25.7537130  36.7095190   8.1350090  24.9356500
  37.0116600   8.0968290  26.4185970  47.7006950   3.3229710  29.6228470
  48.0260360   2.4893460  29.2830700  48.4887280   3.8458230  29.7706800
  41.1097140   2.8584060  18.5178950  40.8838060   2.6421230  19.4225570
  40.3289670   3.2912520  18.1724920  48.3394900   2.8647430  17.1169600
  47.7403790   3.5883230  16.9333220  48.8874510   2.8024210  16.3346050
  43.5496350   3.7569640  29.1839220  43.4539950   2.8164370  29.0339620
  44.3928330   3.9784710  28.7887290  36.1694170   2.0331890  12.5805800
  36.0868840   2.9762650  12.7220790  35.8177230   1.8906800  11.7018150
  47.5314910   4.0916720  23.2423660  46.7996030   4.6003530  23.5913760
  47.1339250   3.2746700  22.9412440  44.0312450   1.7683000  14.6382910
  44.1525270   1.7269480  15.5868730  43.6460960   2.6307150  14.4829640
  43.0433950   4.0784140  14.0366210  42.4750850   3.6302390  13.4102120
  43.7522950   4.4376920  13.5031360  38.1203130   7.9796160  27.9132940
  37.7357920   7.3389830  28.5115900  38.4315320   8.6832280  28.4827670
  44.2700270   4.8272700  23.3941560  44.6370400   4.3531270  24.1402900
  44.0805330   5.7014270  23.7349900  42.0599640   3.8681340  25.7125770
  41.7556710   4.7473320  25.9376130  43.0146100   3.9281130  25.7483210
  40.5881430   8.0742330  16.3092620  39.8143690   7.5339950  16.1491340
  41.3176060   7.5548940  15.9710380  51.3469410   7.0707690  22.1019010
  52.0668530   7.5662980  21.7115120  51.1451230   6.3925580  21.4572880
  46.7288210   7.1416750  27.9888010  46.6625520   6.2212420  27.7345600
  46.0993350   7.2392190  28.7032650  49.5227740   2.8365300  14.5410560
  50.4107360   3.1482530  14.3661900  49.4932830   1.9637550  14.1491140
  40.6318830   7.7422710  19.9471430  41.1497500   6.9390970  19.8928320
  40.1802850   7.6801850  20.7888260  45.5188330   9.0088990  15.2198730
  45.8604030   9.7531220  14.7242050  44.6901040   9.3220110  15.5823560
  38.1163370   4.7084080  26.8597130  37.7578310   5.3737930  27.4470470
  37.8217930   3.8767630  27.2309750  41.3176490   5.1668320  29.7436680
  41.0176630   5.3125500  28.8464500  42.0887730   4.6073610  29.6510070
  46.6604940   9.9637320  27.7391810  46.6749480   9.0318280  27.5210720
  45.9530040  10.0497080  28.3781580  51.7942010   4.1477140  14.0090420
  51.7105730   4.5791360  13.1586860  52.5136200   4.6075490  14.4417240
  52.8716150   6.6044660  27.0860390  52.1464340   7.1973440  26.8889780
  53.3991610   6.5968200  26.2873760  52.8229260  11.0019400  16.7372550
  52.1805420  10.3475020  17.0116270  52.4359920  11.4074490  15.9613220
  48.4015740   8.3304830  20.5844240  48.7539560   7.7332960  19.9245610
  47.5178070   8.0049060  20.7552490  44.4879020   9.0902520  17.9914650
  45.1750150   9.6371730  18.3722240  43.7011440   9.6343250  18.0264260
  36.6271420   4.7075340  13.4831730  37.4966270   4.9900140  13.7667650
  36.1361740   5.5211210  13.3680540  43.7906230   6.0948550  17.6040010
  44.2469010   6.9053800  17.8300200  43.4394440   5.7771690  18.4358500
  46.0938840  11.6054890  24.8332310  46.7381060  11.8114270  25.5105730
  46.4568280  10.8443290  24.3803160  47.3670920   9.6087240  23.5509760
  48.0093150   8.9080400  23.6641930  47.8920270  10.3885680  23.3706650
  51.2126640   9.8935860  13.2748900  50.9864220   9.1766300  13.8673540
  50.8222840   9.6448300  12.4370650  49.1408540  10.4082140  26.7545820
  49.4764780  10.9948830  27.4323740  48.2208880  10.2774850  26.9843610
  50.7942890   7.8107800  14.9363060  50.5064590   8.2720490  15.7240940
  51.5895060   7.3505570  15.2047280  44.9697120  10.4573470  29.9233880
  44.6493990   9.7382710  30.4679570  44.2955480  11.1328540  29.9969940
  43.0111290  11.3033920  14.8667030  43.0021390  12.0363610  14.2511540
  42.0909650  11.0565500  14.9593990  38.6117930   6.5248810  15.6113790
  38.0045880   7.2647710  15.6209090  39.0867280   6.6148170  14.7851990
  45.9970890  11.3662160  13.5292220  46.0982870  11.1626150  12.5994200
  45.0972630  11.1120440  13.7340000  45.1452710   3.3439220  25.5108650
  45.6437960   3.8185040  26.1760500  45.2875660   2.4202740  25.7178680
  44.6389000  13.8848480  18.2239890  44.8930500  13.8469870  17.3019260
  43.6901480  13.7581810  18.2168140  50.6441580   4.8040360  19.7998400
  49.7031720   4.8190590  19.9746090  50.9585650   4.0176320  20.2458700
  40.6223220   6.4859960  13.3602360  41.3886490   6.3741320  13.9227790
  40.6997910   5.7897930  12.7079130  39.3169980   3.9185030  14.0435250
  39.3973570   2.9712540  14.1552650  40.2089730   4.2491910  14.1495910
  52.6467160  11.9749210  21.4752660  52.7714580  12.7980380  21.9476470
  53.5132720  11.7639940  21.1276810  40.1184690  14.0680420  21.1469790
  40.8547170  13.5195880  21.4178360  40.5025610  14.9336430  21.0075780
  37.0030170  10.1353990  17.0211300  36.0769950  10.3775130  17.0116710
  37.4686600  10.9628250  16.8996050  43.2287000  13.2410730  12.9695360
  44.0215610  13.5299560  12.5177150  42.7091350  12.8102900  12.2907840
  47.9607600   9.3606360  30.2830780  47.3545760   9.3837960  29.5426530
  47.6561710   8.6289400  30.8198030  52.2817170  12.4680860  14.3932100
  51.9958680  12.0546000  13.5786280  52.0836720  13.3968570  14.2732620
  36.8440780   5.7399950  29.2791420  37.3479800   5.1607230  29.8507650
  36.1048200   6.0240180  29.8167790  43.7464400   8.4614140  12.8337710
  43.6415040   7.8466490  13.5599090  43.5788620   7.9380030  12.0500720
  43.8978720   7.1470940  28.8126940  43.1324390   7.7155940  28.7281610
  44.0794680   6.8547150  27.9195170  46.9867130   7.5234170  13.4379700
  46.4377230   7.9703470  14.0822440  47.6086390   7.0183420  13.9617370
  51.0402070   8.8776270  29.3701960  51.7811540   9.2152030  28.8669420
  50.2774750   9.0468330  28.8171730  38.8763860   3.8829540  30.1741490
  38.9169200   3.5843410  31.0826720  39.7309360   4.2837150  30.0149010
  42.6542250   6.4825090  15.3345000  43.0758670   6.3164960  16.1776390
  42.7793090   5.6725320  14.8400140  40.8169670   2.4621640  28.1415980
  40.2866130   1.9712590  27.5139320  41.4857740   2.8905840  27.6073910
  45.1669890   5.5062700  12.5822100  45.6875550   4.7911720  12.2163250
  45.8138290   6.1448570  12.8822610  49.7147730   6.9291100  27.9057170
  50.1288750   7.0836180  28.7547590  48.7798730   7.0546320  28.0682950
  50.1869900   4.2687260  29.9096320  50.7690670   3.5139580  29.8216800
  50.3631670   4.7994700  29.1327800  44.4762960   6.8811580  25.8753100
  44.8951070   7.7244310  25.7029340  43.5571590   7.0183620  25.6459880
  46.8126860   4.6127760  27.2590940  46.9323070   4.0168900  27.9985780
  47.6720860   4.6497450  26.8392240  49.1514760   5.1664950  25.8353450
  48.6249980   5.6907570  25.2318590  49.4946100   5.7992340  26.4663180
  41.5501150   2.5558320  12.2803160  41.3490210   1.6925680  12.6416500
  41.3793200   2.4691680  11.3424760  42.3270380  13.1864590  26.9910830
  41.7891470  13.9110650  26.6719530  42.5804340  12.7094930  26.2008170
  45.7317920  13.5874310  14.8723840  46.6268710  13.9259280  14.8942600
  45.7635550  12.8653720  14.2448120  39.3714080   8.9601360  13.1010840
  39.8088950   9.5031030  13.7568420  39.8561810   8.1348310  13.1107180
  36.5859880  11.7490390  20.5531100  36.9162890  10.8811450  20.3209740
  37.0150880  11.9548910  21.3836060  41.1821800  10.0799400  18.2133070
  40.8817340   9.9564370  19.1136980  41.0759290   9.2207990  17.8048800
  37.0750090  12.6160980  23.2912730  36.6381080  12.7961780  24.1236880
  37.6427770  13.3735600  23.1494450  52.7112270  12.1177980  27.5790040
  52.1114260  12.1770540  26.8353960  52.8406170  11.1782960  27.7086890
  53.9513720   9.8595800  12.9159750  53.1206680   9.9272450  13.3866980
  54.1285550  10.7499920  12.6126610  53.4070180   6.6043280  15.4193950
  54.1689090   7.1739930  15.5253640  53.4224550   6.0370480  16.1902260
  36.9074520   5.1281210  19.6501610  36.2523360   4.8592850  19.0061310
  37.7452470   5.0185690  19.2003590  54.4130150   7.4593380  20.2635880
  54.7838980   6.6760700  19.8571850  55.0532080   8.1482480  20.0853180
  51.3963910   8.8429960  25.6766200  50.5823750   9.2727120  25.9391990
  51.8038110   9.4548370  25.0635250  53.4589350   6.8977650  12.5766470
  53.7338190   7.8056530  12.4485690  53.2700090   6.8340180  13.5128460
  53.3554690   4.8346640  17.5695900  52.9798290   4.0674570  17.1377190
  52.6257810   5.2169340  18.0570830  37.9450450   5.5133780  24.1904950
  38.3123490   5.4261180  25.0700970  37.3761270   4.7500330  24.0911810
  52.7454310   3.9818160  27.2035420  52.5140400   3.7530910  26.3033370
  53.0058860   4.9017710  27.1580310  37.4966450   2.4242870  28.0963370
  36.6022500   2.3909630  28.4357080  38.0364000   2.6229660  28.8614620
  36.1212600   2.3380140  15.5926940  35.2176680   2.6010340  15.4178600
  36.6053220   2.6091310  14.8126900  52.6305650   3.0604130  20.8703140
  53.1543130   2.5666780  20.2393310  53.2165070   3.1954490  21.6150710
  52.8095370   3.1444000  24.3922690  51.8598080   3.1107540  24.5067680
  52.9908380   4.0544110  24.1572460  51.4539960  13.5948560  19.2034470
  52.0499030  13.2733130  18.5268890  51.7118110  13.1220380  19.9947740
  39.3602530  10.0266470  29.3525100  39.3172160   9.6559380  30.2339560
  39.4913540  10.9644040  29.4926920  43.0608560  11.5826060  24.9534820
  42.8199920  11.8500620  24.0665340  44.0011200  11.7531790  25.0085680
  54.3212720  13.6020440  25.7545460  53.8271000  13.9989310  25.0372590
  53.7126010  12.9769650  26.1482740  52.0052170  14.2443860  23.0332200
  51.5455140  14.9959670  22.6590220  51.3764630  13.5250330  22.9747000
  38.8302790  10.3387100  25.4230920  38.1036850   9.7192390  25.3556870
  38.8911940  10.7327710  24.5529000  42.4347890  12.5532100  22.2080330
  42.9512910  11.9419460  21.6828590  43.0845270  13.0560880  22.6991340
  45.1743390  13.4440590  23.0349310  45.4621200  13.1894890  22.1582320
  45.6866610  12.8917950  23.6254880  38.7195490  12.3494720  16.0777820
  38.1943110  12.7302750  15.3739780  38.6440070  12.9745490  16.7987530
  53.4760810  13.9082260  17.3991760  53.6513000  13.2220000  16.7552680
  52.7782380  14.4329310  17.0068430  41.3188460  14.2977100  14.9527070
  42.0507280  14.0136380  14.4050960  41.5782130  14.0590380  15.8426450
  40.4803250  10.4141830  14.9573400  39.8512130  10.8826930  15.5059230
  40.5951080   9.5691050  15.3919590  46.0671010   6.2426510   2.9883870
  45.2913110   5.7626950   3.2782440  46.7183940   5.5632160   2.8140030
  40.0836840   6.5546320   3.8659630  39.2521720   6.2995030   4.2656140
  40.6917820   6.6257090   4.6017550  50.0878440  10.6486700   1.7683000
  49.6259970   9.8773940   2.0970170  50.9003990  10.6752770   2.2735450
  40.0638100  10.5886410   4.0617650  40.3666140   9.6984150   3.8827870
  40.8081690  11.1456630   3.8339900  36.4561800   4.1153860   3.5341720
  37.0277910   3.3476060   3.5345360  36.4563340   4.4142620   2.6248330
  45.5080000   8.9183700   2.9954030  45.4388280   7.9773640   2.8343160
  46.2699860   9.0085110   3.5676600  42.5097910   3.0666080   3.0165580
  43.0176130   3.5647050   3.6570600  43.0411150   2.2901280   2.8404940
  42.0436860   7.3459820   5.4602500  41.7106240   7.9728740   6.1023570
  42.2203540   7.8721700   4.6804170  41.2555960   9.3140620   7.2751680
  41.8729960   9.9891700   6.9936130  40.3949080   9.7228600   7.1839180
  52.1733550  10.7780030   5.1906320  51.4897070  11.4479140   5.1822990
  52.7127840  10.9760680   4.4251180  49.7092290  12.6224160   3.9051500
  49.7219450  12.2186450   3.0373760  49.1567510  13.3971450   3.8012930
  49.1077730   7.5254000   5.2334110  49.5246520   7.3114110   4.3987570
  49.8317550   7.7826790   5.8042730  53.0539830   5.9241220   5.3250350
  52.2258460   5.9934310   4.8500480  53.6490310   6.5095530   4.8566180
  50.0181840   2.7110540   6.2705220  49.6053020   3.5364250   6.5245210
  49.2857790   2.1255580   6.0781580  42.6196330   9.1838000   3.2963100
  42.3224620   8.5783470   2.6170880  43.5696150   9.2215310   3.1852460
  40.8643250   2.2713650   4.9122930  41.4157840   2.3808990   4.1376180
  41.3786760   2.6451250   5.6278160  50.7081940  12.7569870   6.9586200
  50.2312500  13.5642060   6.7658810  50.0243730  12.1048200   7.1112410
  41.7114760   8.9219690   9.9470900  40.8143290   9.1459660  10.1944300
  41.7367630   9.0454630   8.9982300  40.5385980   5.7933010   8.5228270
  40.3993750   6.6655810   8.8915670  39.6567340   5.4505820   8.3776210
  42.3366330  11.7354710  10.7313420  42.3081760  12.1397660   9.8641850
  42.1731300  10.8065070  10.5685020  54.2881150  12.5181810  12.0277590
  54.7640870  12.9964700  12.7066670  54.9088310  12.4499300  11.3023090
  36.4904630   7.5630560   4.4399180  36.5685050   7.6979330   3.4954900
  37.1046310   6.8546450   4.6327300  53.6914400   9.7094660   9.1877600
  53.8177460   9.4706540   8.2694780  53.7335780   8.8779200   9.6599680
  47.5531140  13.4122660   7.7572410  48.0675810  13.3230670   8.5594840
  46.7100220  13.7582360   8.0500320  36.5464150   8.6044730   6.9793640
  36.7095190   8.1350090   6.1613010  37.0116600   8.0968290   7.6442480
  47.7006950   3.3229710  10.8484980  48.0260360   2.4893460  10.5087210
  48.4887280   3.8458230  10.9963310  43.5496350   3.7569640  10.4095730
  43.4539950   2.8164370  10.2596130  44.3928330   3.9784710  10.0143800
  47.5314910   4.0916720   4.4680170  46.7996030   4.6003530   4.8170270
  47.1339250   3.2746700   4.1668950  38.1203130   7.9796160   9.1389450
  37.7357920   7.3389830   9.7372410  38.4315320   8.6832280   9.7084180
  44.2700270   4.8272700   4.6198070  44.6370400   4.3531270   5.3659410
  44.0805330   5.7014270   4.9606410  42.0599640   3.8681340   6.9382280
  41.7556710   4.7473320   7.1632640  43.0146100   3.9281130   6.9739720
  51.3469410   7.0707690   3.3275520  52.0668530   7.5662980   2.9371630
  51.1451230   6.3925580   2.6829390  46.7288210   7.1416750   9.2144520
  46.6625520   6.2212420   8.9602110  46.0993350   7.2392190   9.9289160
  38.1163370   4.7084080   8.0853640  37.7578310   5.3737930   8.6726980
  37.8217930   3.8767630   8.4566260  41.3176490   5.1668320  10.9693190
  41.0176630   5.3125500  10.0721010  42.0887730   4.6073610  10.8766580
  46.6604940   9.9637320   8.9648320  46.6749480   9.0318280   8.7467230
  45.9530040  10.0497080   9.6038090  52.8716150   6.6044660   8.3116900
  52.1464340   7.1973440   8.1146290  53.3991610   6.5968200   7.5130270
  46.0938840  11.6054890   6.0588820  46.7381060  11.8114270   6.7362240
  46.4568280  10.8443290   5.6059670  47.3670920   9.6087240   4.7766270
  48.0093150   8.9080400   4.8898440  47.8920270  10.3885680   4.5963160
  49.1408540  10.4082140   7.9802330  49.4764780  10.9948830   8.6580250
  48.2208880  10.2774850   8.2100120  36.9784530  12.1857580   9.7492270
  37.0875650  11.2452320   9.6087660  36.3265090  12.4512330   9.1006000
  44.9697120  10.4573470  11.1490390  44.6493990   9.7382710  11.6936080
  44.2955480  11.1328540  11.2226450  45.1452710   3.3439220   6.7365160
  45.6437960   3.8185040   7.4017010  45.2875660   2.4202740   6.9435190
  52.6467160  11.9749210   2.7009170  52.7714580  12.7980380   3.1732980
  53.5132720  11.7639940   2.3533320  40.1184690  14.0680420   2.3726300
  40.8547170  13.5195880   2.6434870  40.5025610  14.9336430   2.2332290
  39.1242970  13.2526490  11.5611880  39.9255700  13.5738540  11.9747280
  38.6094790  12.8922070  12.2831790  47.9607600   9.3606360  11.5087290
  47.3545760   9.3837960  10.7683040  47.6561710   8.6289400  12.0454540
  49.3907970  13.0886650  10.1196700  50.3429720  13.0044670  10.0696940
  49.2436190  13.7528360  10.7930490  36.8440780   5.7399950  10.5047930
  37.3479800   5.1607230  11.0764160  36.1048200   6.0240180  11.0424300
  43.8978720   7.1470940  10.0383450  43.1324390   7.7155940   9.9538120
  44.0794680   6.8547150   9.1451680  51.0402070   8.8776270  10.5958470
  51.7811540   9.2152030  10.0925930  50.2774750   9.0468330  10.0428240
  38.8763860   3.8829540  11.3998000  38.9169200   3.5843410  12.3083230
  39.7309360   4.2837150  11.2405520  40.8169670   2.4621640   9.3672490
  40.2866130   1.9712590   8.7395830  41.4857740   2.8905840   8.8330420
  49.7147730   6.9291100   9.1313680  50.1288750   7.0836180   9.9804100
  48.7798730   7.0546320   9.2939460  50.1869900   4.2687260  11.1352830
  50.7690670   3.5139580  11.0473310  50.3631670   4.7994700  10.3584310
  44.4762960   6.8811580   7.1009610  44.8951070   7.7244310   6.9285850
  43.5571590   7.0183620   6.8716390  46.8126860   4.6127760   8.4847450
  46.9323070   4.0168900   9.2242290  47.6720860   4.6497450   8.0648750
  49.1514760   5.1664950   7.0609960  48.6249980   5.6907570   6.4575100
  49.4946100   5.7992340   7.6919690  42.3270380  13.1864590   8.2167340
  41.7891470  13.9110650   7.8976040  42.5804340  12.7094930   7.4264680
  45.1832590  14.4215800   8.4753990  45.1091290  15.3250940   8.7826360
  44.2811430  14.1027700   8.4476060  36.5859880  11.7490390   1.7787610
  36.9162890  10.8811450   1.5466250  37.0150880  11.9548910   2.6092570
  37.0750090  12.6160980   4.5169240  36.6381080  12.7961780   5.3493390
  37.6427770  13.3735600   4.3750960  52.7112270  12.1177980   8.8046550
  52.1114260  12.1770540   8.0610470  52.8406170  11.1782960   8.9343400
  51.3963910   8.8429960   6.9022710  50.5823750   9.2727120   7.1648500
  51.8038110   9.4548370   6.2891760  37.9450450   5.5133780   5.4161460
  38.3123490   5.4261180   6.2957480  37.3761270   4.7500330   5.3168320
  52.7454310   3.9818160   8.4291930  52.5140400   3.7530910   7.5289880
  53.0058860   4.9017710   8.3836820  37.4966450   2.4242870   9.3219880
  36.6022500   2.3909630   9.6613590  38.0364000   2.6229660  10.0871130
  52.6305650   3.0604130   2.0959650  53.1543130   2.5666780   1.4649820
  53.2165070   3.1954490   2.8407220  52.8095370   3.1444000   5.6179200
  51.8598080   3.1107540   5.7324190  52.9908380   4.0544110   5.3828970
  39.3602530  10.0266470  10.5781610  39.3172160   9.6559380  11.4596070
  39.4913540  10.9644040  10.7183430  43.0608560  11.5826060   6.1791330
  42.8199920  11.8500620   5.2921850  44.0011200  11.7531790   6.2342190
  54.3212720  13.6020440   6.9801970  53.8271000  13.9989310   6.2629100
  53.7126010  12.9769650   7.3739250  39.1990560  12.9728720   7.6979390
  38.6050880  12.8413420   8.4369430  39.1914400  12.1366860   7.2321490
  52.0052170  14.2443860   4.2588710  51.5455140  14.9959670   3.8846730
  51.3764630  13.5250330   4.2003510  38.8302790  10.3387100   6.6487430
  38.1036850   9.7192390   6.5813380  38.8911940  10.7327710   5.7785510
  42.4347890  12.5532100   3.4336840  42.9512910  11.9419460   2.9085100
  43.0845270  13.0560880   3.9247850  45.1743390  13.4440590   4.2605820
  45.4621200  13.1894890   3.3838830  45.6866610  12.8917950   4.8511390
  45.2415750  14.3656690  11.6274020  46.1683060  14.1300960  11.6709980
  45.2266180  15.1928690  11.1460050  51.8093310  13.5926550  11.4515060
  52.6018630  13.0975780  11.2441020  52.1026460  14.2716690  12.0590670
  29.1609480  60.7877960  57.4305070  29.0803530  59.8732570  57.1596780
  28.7473900  61.2845030  56.7244780  27.2927520  62.5656980  59.3114340
  26.5169620  62.0857420  59.6012910  27.9440450  61.8862630  59.1370500
  19.7185300  57.8378680  53.9732490  18.8302000  58.1794650  53.8712370
  20.0026490  57.6379000  53.0813320  17.6818310  60.4384330  59.8572190
  18.2534420  59.6706530  59.8575830  17.6819850  60.7373090  58.9478800
  27.7641680  58.0484550  59.5453430  28.1406500  57.1756430  59.4327100
  27.6661190  58.3843250  58.6543870  21.8946690  56.4210180  55.0070870
  22.0013440  57.3213910  55.3139630  20.9839050  56.3728150  54.7165520
  31.5465800  55.5434990  56.4781770  32.3675420  55.0531560  56.5207250
  31.5799880  56.1332650  57.2313610  23.7354420  59.3896550  59.3396050
  24.2432640  59.8877520  59.9801070  24.2667660  58.6131750  59.1635410
  28.4061610  64.1414420  55.1049370  27.7878880  64.6063870  54.5412090
  28.9184860  64.8341900  55.5218880  31.7827280  57.4835370  59.2509310
  31.0782850  57.7720260  59.8312420  32.1439440  58.2935480  58.8908870
  34.8514200  56.9290160  59.6418520  33.9039110  56.9629140  59.7733950
  35.1764190  57.7429110  60.0267880  25.3833740  53.2287340  57.9374510
  25.6908720  52.6734230  57.2210010  24.4534440  53.3631800  57.7547500
  27.7714500  61.2936170  54.6734630  26.8443780  61.2273550  54.9023100
  27.9239320  62.2316300  54.5589870  27.7583580  57.5653170  51.6701790
  26.8187250  57.7267130  51.7554250  28.0766840  58.2838850  51.1237780
  31.8011790  62.8556470  55.1769880  31.1824210  62.5176020  54.5296180
  31.7836240  62.2116230  55.8849070  23.3771140  61.8200910  57.4554360
  22.9728140  61.1078160  56.9600260  23.4634260  61.4754150  58.3442400
  29.9776490  62.0943280  52.1842630  30.4169770  61.2565710  52.0380450
  30.6904910  62.7272680  52.2706770  33.5593630  53.3486090  50.4983670
  33.2466290  53.4412920  51.3982740  34.3206100  53.9267120  50.4481100
  20.0775770  60.7145890  54.9561010  19.9573370  61.4407980  54.3442280
  19.7676660  59.9448800  54.4788920  22.5439430  54.0580960  58.3384680
  22.1007580  54.8390500  58.0069200  23.1024420  54.3810850  59.0455620
  25.6598250  53.6791660  53.2190510  25.0352430  53.6751530  53.9443820
  25.5728370  52.8122620  52.8226480  24.5815330  54.6028290  60.1974280
  24.8787660  55.5091120  60.1166300  25.1300890  54.1147070  59.5833850
  22.3353650  59.1814530  56.0665930  22.1094570  58.9651700  56.9712550
  21.5546180  59.6142990  55.7211900  29.5651410  59.1877900  54.6656580
  28.9660300  59.9113700  54.4820200  30.1131020  59.1254680  53.8833030
  28.1716280  57.8241440  56.6959860  28.5645850  58.1413640  55.8828550
  28.5333130  56.9453320  56.8104380  17.2080450  54.4142240  58.9190060
  16.9193500  54.9845100  59.6315040  17.9526210  53.9346690  59.2821290
  17.3950680  58.3562360  50.1292780  17.3125350  59.2993120  50.2707770
  17.0433740  58.2137270  49.2505130  25.1948810  57.0901390  59.1963130
  25.1984870  56.6491340  58.3467670  26.0899930  57.4118720  59.3034950
  21.0451190  56.9727880  58.1557340  20.7051240  57.4503110  58.9124390
  20.2828510  56.5193000  57.7958440  25.2568960  58.0913470  52.1869890
  25.3781780  58.0499950  53.1355710  24.8717470  58.9537620  52.0316620
  24.2690460  60.4014610  51.5853190  23.7007360  59.9532860  50.9589100
  24.9779460  60.7607390  51.0518340  18.3597270  55.8946860  57.0722010
  18.0744190  55.5302530  57.9100630  18.2976130  55.1627320  56.4585150
  21.8137940  64.3972800  53.8579600  21.0400200  63.8570420  53.6978320
  22.5432570  63.8779410  53.5197360  32.5725920  63.3938160  59.6505990
  33.2925040  63.8893450  59.2602100  32.3707740  62.7156050  59.0059860
  28.0335860  54.7876120  53.7935380  27.2200470  54.2889290  53.7180690
  27.8397810  55.6274370  53.3771730  30.7484250  59.1595770  52.0897540
  31.6363870  59.4713000  51.9148880  30.7189340  58.2868020  51.6978120
  21.8575340  64.0653180  57.4958410  22.3754010  63.2621440  57.4415300
  21.4059360  64.0032320  58.3375240  33.0198520  60.4707610  51.5577400
  32.9362240  60.9021830  50.7073840  33.7392710  60.9305960  51.9904220
  29.6272250  64.6535300  58.1331220  29.9796070  64.0563430  57.4732590
  28.7434580  64.3279530  58.3039470  17.8527930  61.0305810  51.0318710
  18.7222780  61.3130610  51.3154630  17.3618250  61.8441680  50.9167520
  25.0162740  62.4179020  55.1526990  25.4725520  63.2284270  55.3787180
  24.6650950  62.1002160  55.9845480  20.9174520  52.7616670  55.6249510
  20.7889150  52.7534570  56.5734430  20.0936540  53.0999760  55.2740520
  32.0199400  64.1338270  52.4850040  31.7321100  64.5950960  53.2727920
  32.8151570  63.6736040  52.7534260  19.8374440  62.8479280  53.1600770
  19.2302390  63.5878180  53.1696070  20.3123790  62.9378640  52.3338970
  32.7769260  55.9687040  53.6445220  32.1482420  56.0732710  52.9303450
  32.2821180  56.1883820  54.4339100  24.7453290  58.2472990  55.0603100
  24.0369440  58.7159330  55.5016710  25.0297770  57.5895000  55.6948290
  28.7768720  54.9723650  56.4998890  28.6536500  54.9909780  55.5508400
  29.7253280  55.0202590  56.6197290  22.9488310  56.5558070  52.4353810
  23.7978840  56.9928220  52.3694000  22.5819580  56.8678330  53.2625870
  31.8698090  61.1270830  57.3485380  30.9288230  61.1421060  57.5233070
  32.1842160  60.3406790  57.7945680  21.8479730  62.8090430  50.9089340
  22.6143000  62.6971790  51.4714770  21.9254420  62.1128400  50.2566110
  20.5426490  60.2415500  51.5922230  20.6230080  59.2943010  51.7039630
  21.4346240  60.5722380  51.6982890  24.9720910  64.7844610  50.3824690
  24.8671550  64.1696960  51.1086070  24.8045130  64.2610500  49.5987700
  28.2123640  63.8464640  50.9866680  27.6633740  64.2933940  51.6309420
  28.8342900  63.3413890  51.5104350  23.8798760  62.8055560  52.8831980
  24.3015180  62.6395430  53.7263370  24.0049600  61.9955790  52.3887120
  26.3926400  61.8293170  50.1309080  26.9132060  61.1142190  49.7650230
  27.0394800  62.4679040  50.4309590  22.7757660  58.8788790  49.8290140
  22.5746720  58.0156150  50.1903480  22.6049710  58.7922150  48.8911740
  30.2545970  53.6897020  52.3577020  30.5348260  52.8464920  52.7136440
  29.4811700  53.9220130  52.8715770  21.5740460  55.9789410  49.8168020
  21.8766360  55.9856840  48.9087170  22.3135050  55.6287270  50.3135680
  24.7925390  54.9224030  50.8024220  24.4447390  54.2448020  50.2226670
  24.9938160  54.4613540  51.6167610  34.6326690  62.9273750  52.9680930
  35.3945600  63.4970400  53.0740620  34.6481060  62.3600950  53.7389240
  18.1331030  61.4511680  57.1988590  17.4779870  61.1823320  56.5548290
  18.9708980  61.3416160  56.7490570  35.6386660  63.7823850  57.8122860
  36.0095490  62.9991170  57.4058830  36.2788590  64.4712950  57.6340160
  34.6845860  63.2208120  50.1253450  34.9594700  64.1287000  49.9972670
  34.4956600  63.1570650  51.0615440  31.0821470  56.2452970  51.4207080
  31.5006350  56.0583950  50.5803740  30.7757530  55.3932020  51.7310010
  34.5811200  61.1577110  55.1182880  34.2054800  60.3905040  54.6864170
  33.8514320  61.5399810  55.6057810  17.3469110  58.6610610  53.1413920
  16.4433190  58.9240810  52.9665580  17.8309730  58.9321780  52.3613880
  33.8562160  59.3834600  58.4190120  34.3799640  58.8897250  57.7880290
  34.4421580  59.5184960  59.1637690  19.8896320  57.7176150  51.0508300
  20.5988020  57.2959370  50.5655580  19.1736260  57.7851380  50.4191650
  19.5370480  53.7715480  50.0910950  20.2598610  54.3124420  50.4092170
  19.8095000  53.4978900  49.2152490  33.3462130  58.6407950  54.3582530
  33.8421250  58.4078820  55.1431410  33.1478200  57.8019790  53.9420170
  34.7749290  57.2768900  56.8920210  34.6648570  57.1224940  57.8302480
  35.5356880  56.7489840  56.6495620  35.6639560  55.1076820  50.1326350
  36.5888870  54.9758000  49.9244640  35.6415350  55.1869640  51.0862800
  35.7378050  55.8787480  52.7583060  34.9429550  55.8132600  53.2875970
  35.9421330  56.8138120  52.7468410  32.1697980  54.2084360  59.2081890
  32.6106070  54.1529460  58.3603490  31.9005570  55.1242370  59.2792070
  34.0336550  53.8399600  57.2190710  33.9724950  52.8960820  57.0721730
  34.8128580  53.9479690  57.7644170  18.9617320  53.8108740  53.6846520
  19.7196680  53.9237620  53.1110550  18.4994490  54.6477940  53.6389950
  25.5031130  55.9248010  56.6748830  24.6905640  55.5504900  56.3344710
  26.0072770  55.1693090  56.9770020  30.0056110  52.5890460  57.9131900
  30.6085480  53.1610670  58.3880420  29.2649100  53.1529900  57.6905800
  33.1490710  52.9912020  53.1872180  33.3441340  53.8895470  53.4539610
  32.3620580  52.7599100  53.6805130  21.3342470  54.3372790  52.2248490
  21.8635230  53.5502590  52.0956440  21.9670790  55.0163980  52.4584020
  23.5280310  54.0747930  55.2793880  22.8983050  53.3735240  55.4464010
  22.9885450  54.8352060  55.0627040  29.1609480  60.7877960  38.6561580
  29.0803530  59.8732570  38.3853290  28.7473900  61.2845030  37.9501290
  27.2927520  62.5656980  40.5370850  26.5169620  62.0857420  40.8269420
  27.9440450  61.8862630  40.3627010  21.3093350  62.8776790  41.4146610
  20.4778230  62.6225500  41.8143120  21.9174330  62.9487560  42.1504530
  19.7185300  57.8378680  35.1989000  18.8302000  58.1794650  35.0968880
  20.0026490  57.6379000  34.3069830  17.6818310  60.4384330  41.0828700
  18.2534420  59.6706530  41.0832340  17.6819850  60.7373090  40.1735310
  18.9243180  55.8468690  42.8697630  18.7446020  54.9494440  43.1500390
  18.5223260  56.3940560  43.5444580  27.7641680  58.0484550  40.7709940
  28.1406500  57.1756430  40.6583610  27.6661190  58.3843250  39.8800380
  21.8946690  56.4210180  36.2327380  22.0013440  57.3213910  36.5396140
  20.9839050  56.3728150  35.9422030  19.5429850  58.3429190  41.4779970
  20.2239960  58.6067560  42.0967370  19.2277900  57.5030060  41.8117980
  23.7354420  59.3896550  40.5652560  24.2432640  59.8877520  41.2057580
  24.2667660  58.6131750  40.3891920  35.8365350  57.5601740  44.2681910
  35.1317520  57.9483450  43.7497020  36.1023270  58.2552030  44.8702840
  22.0190520  54.0295110  44.8315980  22.0208960  54.5467500  44.0261880
  21.1894830  53.5525290  44.8085910  28.4061610  64.1414420  36.3305880
  27.7878880  64.6063870  35.7668600  28.9184860  64.8341900  36.7475390
  23.2693370  63.6690290  43.0089480  22.9362750  64.2959210  43.6510550
  23.4460050  64.1952170  42.2291150  31.7827280  57.4835370  40.4765820
  31.0782850  57.7720260  41.0568930  32.1439440  58.2935480  40.1165380
  21.7005850  55.7405070  42.8386430  22.0422660  56.5847120  42.5440300
  20.7621660  55.8888810  42.9551770  34.8514200  56.9290160  40.8675030
  33.9039110  56.9629140  40.9990460  35.1764190  57.7429110  41.2524390
  30.3334240  63.8484470  42.7821090  30.7503030  63.6344580  41.9474550
  31.0574060  64.1057260  43.3529710  27.7714500  61.2936170  35.8991140
  26.8443780  61.2273550  36.1279610  27.9239320  62.2316300  35.7846380
  27.7583580  57.5653170  32.8958300  26.8187250  57.7267130  32.9810760
  28.0766840  58.2838850  32.3494290  34.2796340  62.2471690  42.8737330
  33.4514970  62.3164780  42.3987460  34.8746820  62.8326000  42.4053160
  31.8011790  62.8556470  36.4026390  31.1824210  62.5176020  35.7552690
  31.7836240  62.2116230  37.1105580  31.2438350  59.0341010  43.8192200
  30.8309530  59.8594720  44.0732190  30.5114300  58.4486050  43.6268560
  23.3771140  61.8200910  38.6810870  22.9728140  61.1078160  38.1856770
  23.4634260  61.4754150  39.5698910  22.0899760  58.5944120  42.4609910
  22.6414350  58.7039460  41.6863160  22.6043270  58.9681720  43.1765140
  29.9776490  62.0943280  33.4099140  30.4169770  61.2565710  33.2636960
  30.6904910  62.7272680  33.4963280  21.7642490  62.1163480  46.0715250
  21.6250260  62.9886280  46.4402650  20.8823850  61.7736290  45.9263190
  33.5593630  53.3486090  31.7240180  33.2466290  53.4412920  32.6239250
  34.3206100  53.9267120  31.6737610  20.0775770  60.7145890  36.1817520
  19.9573370  61.4407980  35.5698790  19.7676660  59.9448800  35.7045430
  17.7161140  63.8861030  41.9886160  17.7941560  64.0209800  41.0441880
  18.3302820  63.1776920  42.1814280  34.7694920  58.0857590  47.7014320
  34.1539190  58.5937260  47.1729780  34.4491340  57.1855920  47.6440260
  17.7720660  64.9275200  44.5280620  17.9351700  64.4580560  43.7099990
  18.2373110  64.4198760  45.1929460  22.5439430  54.0580960  39.5641190
  22.1007580  54.8390500  39.2325710  23.1024420  54.3810850  40.2712130
  26.8309240  56.9249480  45.1676510  26.3688610  57.1332500  45.9796450
  26.4287350  56.1108830  44.8647180  31.8313750  58.1458430  46.2973170
  30.9807340  57.8464180  46.6182240  31.6715540  58.3900440  45.3856990
  28.9263460  59.6460180  48.3971960  29.2516870  58.8123930  48.0574190
  29.7143790  60.1688700  48.5450290  25.6598250  53.6791660  34.4447020
  25.0352430  53.6751530  35.1700330  25.5728370  52.8122620  34.0482990
  24.5815330  54.6028290  41.4230790  24.8787660  55.5091120  41.3422810
  25.1300890  54.1147070  40.8090360  22.3353650  59.1814530  37.2922440
  22.1094570  58.9651700  38.1969060  21.5546180  59.6142990  36.9468410
  29.5651410  59.1877900  35.8913090  28.9660300  59.9113700  35.7076710
  30.1131020  59.1254680  35.1089540  24.7752860  60.0800110  47.9582710
  24.6796460  59.1394840  47.8083110  25.6184840  60.3015180  47.5630780
  28.1716280  57.8241440  37.9216370  28.5645850  58.1413640  37.1085060
  28.5333130  56.9453320  38.0360890  19.9063400  56.4913780  46.1116490
  19.5126790  57.3388990  46.3189270  19.2181800  55.8540150  46.3025130
  26.4808450  56.5748750  49.1813230  25.7906770  56.3820950  49.8159320
  27.2240750  56.8583390  49.7137530  17.2080450  54.4142240  40.1446570
  16.9193500  54.9845100  40.8571550  17.9526210  53.9346690  40.5077800
  17.3950680  58.3562360  31.3549290  17.3125350  59.2993120  31.4964280
  17.0433740  58.2137270  30.4761640  28.7571420  60.4147190  42.0167150
  28.0252540  60.9234000  42.3657250  28.3595760  59.5977170  41.7155930
  25.1948810  57.0901390  40.4219640  25.1984870  56.6491340  39.5724180
  26.0899930  57.4118720  40.5291460  21.0451190  56.9727880  39.3813850
  20.7051240  57.4503110  40.1380900  20.2828510  56.5193000  39.0214950
  25.2568960  58.0913470  33.4126400  25.3781780  58.0499950  34.3612220
  24.8717470  58.9537620  33.2573130  29.2197330  55.8680870  41.4290090
  29.2370070  56.3189520  42.2731940  28.9712910  54.9686510  41.6423530
  24.2690460  60.4014610  32.8109700  23.7007360  59.9532860  32.1845610
  24.9779460  60.7607390  32.2774850  32.6468080  53.2813050  47.2676470
  32.9713850  52.5502710  47.7934450  32.6824590  52.9626690  46.3657460
  19.3459640  64.3026630  46.6876430  18.9614430  63.6620300  47.2859390
  19.6571830  65.0062750  47.2571160  25.4956780  61.1503170  42.1685050
  25.8626910  60.6761740  42.9146390  25.3061840  62.0244740  42.5093390
  18.3597270  55.8946860  38.2978520  18.0744190  55.5302530  39.1357140
  18.2976130  55.1627320  37.6841660  23.2856150  60.1911810  44.4869260
  22.9813220  61.0703790  44.7119620  24.2402610  60.2511600  44.5226700
  21.8137940  64.3972800  35.0836110  21.0400200  63.8570420  34.9234830
  22.5432570  63.8779410  34.7453870  32.5725920  63.3938160  40.8762500
  33.2925040  63.8893450  40.4858610  32.3707740  62.7156050  40.2316370
  27.9544720  63.4647220  46.7631500  27.8882030  62.5442890  46.5089090
  27.3249860  63.5622660  47.4776140  30.7484250  59.1595770  33.3154050
  31.6363870  59.4713000  33.1405390  30.7189340  58.2868020  32.9234630
  21.8575340  64.0653180  38.7214920  22.3754010  63.2621440  38.6671810
  21.4059360  64.0032320  39.5631750  19.3419880  61.0314550  45.6340620
  18.9834820  61.6968400  46.2213960  19.0474440  60.1998100  46.0053240
  22.5433000  61.4898790  48.5180170  22.2433140  61.6355970  47.6207990
  23.3144240  60.9304080  48.4253560  33.0198520  60.4707610  32.7833910
  32.9362240  60.9021830  31.9330350  33.7392710  60.9305960  33.2160730
  34.0972660  62.9275130  45.8603880  33.3720850  63.5203910  45.6633270
  34.6248120  62.9198670  45.0617250  29.6272250  64.6535300  39.3587730
  29.9796070  64.0563430  38.6989100  28.7434580  64.3279530  39.5295980
  17.8527930  61.0305810  32.2575220  18.7222780  61.3130610  32.5411140
  17.3618250  61.8441680  32.1424030  25.0162740  62.4179020  36.3783500
  25.4725520  63.2284270  36.6043690  24.6650950  62.1002160  37.2101990
  20.9174520  52.7616670  36.8506020  20.7889150  52.7534570  37.7990940
  20.0936540  53.0999760  36.4997030  17.9168450  54.5207790  46.3112720
  17.2026970  54.7204710  46.9165330  18.3363490  53.7447360  46.6827520
  32.0199400  64.1338270  33.7106550  31.7321100  64.5950960  34.4984430
  32.8151570  63.6736040  33.9790770  19.8374440  62.8479280  34.3857280
  19.2302390  63.5878180  34.3952580  20.3123790  62.9378640  33.5595480
  29.4107230  57.0130100  44.0614170  29.7788050  56.1925310  44.3893740
  28.5505430  57.0731990  44.4769820  32.7769260  55.9687040  34.8701730
  32.1482420  56.0732710  34.1559960  32.2821180  56.1883820  35.6595610
  24.7453290  58.2472990  36.2859610  24.0369440  58.7159330  36.7273220
  25.0297770  57.5895000  36.9204800  26.3709220  59.6669690  44.2852140
  26.8694470  60.1415510  44.9503990  26.5132170  58.7433210  44.4922170
  22.9488310  56.5558070  33.6610320  23.7978840  56.9928220  33.5950510
  22.5819580  56.8678330  34.4882380  33.5776080  55.8837650  45.1280530
  33.0749680  56.6243050  45.4674340  34.3932740  56.2721650  44.8117320
  31.8698090  61.1270830  38.5741890  30.9288230  61.1421060  38.7489580
  32.1842160  60.3406790  39.0202190  21.8479730  62.8090430  32.1345850
  22.6143000  62.6971790  32.6971280  21.9254420  62.1128400  31.4822620
  20.5426490  60.2415500  32.8178740  20.6230080  59.2943010  32.9296140
  21.4346240  60.5722380  32.9239400  18.0697290  62.0630420  48.0534910
  18.5736310  61.4837700  48.6251140  17.3304710  62.3470650  48.5911280
  24.9720910  64.7844610  31.6081200  24.8671550  64.1696960  32.3342580
  24.8045130  64.2610500  30.8244210  25.1235230  63.4701410  47.5870430
  24.3580900  64.0386410  47.5025100  25.3051190  63.1777620  46.6938660
  28.2123640  63.8464640  32.2123190  27.6633740  64.2933940  32.8565930
  28.8342900  63.3413890  32.7360860  20.1020370  60.2060010  48.9484980
  20.1425710  59.9073880  49.8570210  20.9565870  60.6067620  48.7892500
  23.8798760  62.8055560  34.1088490  24.3015180  62.6395430  34.9519880
  24.0049600  61.9955790  33.6143630  22.0426180  58.7852110  46.9159470
  21.5122640  58.2943060  46.2882810  22.7114250  59.2136310  46.3817400
  26.3926400  61.8293170  31.3565590  26.9132060  61.1142190  30.9906740
  27.0394800  62.4679040  31.6566100  30.9404240  63.2521570  46.6800660
  31.3545260  63.4066650  47.5291080  30.0055240  63.3776790  46.8426440
  31.4126410  60.5917730  48.6839810  31.9947180  59.8370050  48.5960290
  31.5888180  61.1225170  47.9071290  22.5298480  55.7514480  46.9956760
  22.4355350  55.1335230  46.2707630  21.9495870  56.4780770  46.7686670
  25.2959920  54.3087720  44.0284150  24.8477220  54.3311980  43.1829700
  24.6625120  53.9106740  44.6254450  25.7019470  63.2042050  44.6496590
  26.1207580  64.0474780  44.4772830  24.7828100  63.3414090  44.4203370
  28.0383370  60.9358230  46.0334430  28.1579580  60.3399370  46.7729270
  28.8977370  60.9727920  45.6135730  30.3771270  61.4895420  44.6096940
  29.8506490  62.0138040  44.0062080  30.7202610  62.1222810  45.2406670
  22.7757660  58.8788790  31.0546650  22.5746720  58.0156150  31.4159990
  22.6049710  58.7922150  30.1168250  24.8052140  57.4779580  47.2910250
  25.3951830  57.1695430  47.9788070  23.9872380  57.0059330  47.4470150
  29.6245570  57.0945390  47.5243270  28.9361090  56.4326930  47.4593260
  30.3451590  56.6483660  47.9691730  21.5740460  55.9789410  31.0424530
  21.8766360  55.9856840  30.1343680  22.3135050  55.6287270  31.5392190
  24.7925390  54.9224030  32.0280730  24.4447390  54.2448020  31.4483180
  24.9938160  54.4613540  32.8424120  34.6326690  62.9273750  34.1937440
  35.3945600  63.4970400  34.2997130  34.6481060  62.3600950  34.9645750
  18.1331030  61.4511680  38.4245100  17.4779870  61.1823320  37.7804800
  18.9708980  61.3416160  37.9747080  35.6386660  63.7823850  39.0379370
  36.0095490  62.9991170  38.6315340  36.2788590  64.4712950  38.8596670
  34.6845860  63.2208120  31.3509960  34.9594700  64.1287000  31.2229180
  34.4956600  63.1570650  32.2871950  31.0821470  56.2452970  32.6463590
  31.5006350  56.0583950  31.8060250  30.7757530  55.3932020  32.9566520
  34.5811200  61.1577110  36.3439390  34.2054800  60.3905040  35.9120680
  33.8514320  61.5399810  36.8314320  19.1706960  61.8364250  42.9648440
  19.5380000  61.7491650  43.8444460  18.6017780  61.0730800  42.8655300
  33.9710820  60.3048630  45.9778910  33.7396910  60.0761380  45.0776860
  34.2315370  61.2248180  45.9323800  18.7222960  58.7473340  46.8706860
  17.8279010  58.7140100  47.2100570  19.2620510  58.9460130  47.6358110
  32.4098890  55.5305060  48.7558610  33.2869070  55.5388460  49.1392610
  32.4219730  54.7935900  48.1450960  17.3469110  58.6610610  34.3670430
  16.4433190  58.9240810  34.1922090  17.8309730  58.9321780  33.5870390
  33.8562160  59.3834600  39.6446630  34.3799640  58.8897250  39.0136800
  34.4421580  59.5184960  40.3894200  34.0351880  59.4674470  43.1666180
  33.0854590  59.4338010  43.2811170  34.2164890  60.3774580  42.9315950
  19.8896320  57.7176150  32.2764810  20.5988020  57.2959370  31.7912090
  19.1736260  57.7851380  31.6448160  19.5370480  53.7715480  31.3167460
  20.2598610  54.3124420  31.6348680  19.8095000  53.4978900  30.4409000
  33.3462130  58.6407950  35.5839040  33.8421250  58.4078820  36.3687920
  33.1478200  57.8019790  35.1676680  19.2262670  53.0221670  41.2190080
  19.8738860  52.4719050  40.7785240  19.6464510  53.2764820  42.0405890
  34.7749290  57.2768900  38.1176720  34.6648570  57.1224940  39.0558990
  35.5356880  56.7489840  37.8752130  33.1215010  53.2163030  44.5759720
  33.7587230  53.8297170  44.9418910  33.2689900  53.2523690  43.6308950
  35.6639560  55.1076820  31.3582860  36.5888870  54.9758000  31.1501150
  35.6415350  55.1869640  32.3119310  35.7378050  55.8787480  33.9839570
  34.9429550  55.8132600  34.5132480  35.9421330  56.8138120  33.9724920
  18.9794670  53.1777340  43.9615400  18.6309490  53.6341160  44.7273580
  18.6482370  52.2834470  44.0437830  26.4919490  54.3689220  47.4834820
  26.4308380  54.9611050  48.2330230  27.4319870  54.2615180  47.3385080
  29.1294050  54.0259280  47.1227110  29.7434460  54.3438570  46.4608190
  29.6743610  53.5407870  47.7422970  19.6515310  52.7053540  47.2366170
  20.1998300  52.5241590  46.4732280  19.7170620  51.9147650  47.7722480
  29.8702090  52.5891420  43.4496400  28.9961930  52.9226530  43.2469330
  29.7612840  52.1164600  44.2748270  30.7774070  54.7962290  44.8338120
  30.4487430  53.9814050  44.4539850  31.7256370  54.7532100  44.7103810
  32.1697980  54.2084360  40.4338400  32.6106070  54.1529460  39.5860000
  31.9005570  55.1242370  40.5048580  34.0336550  53.8399600  38.4447220
  33.9724950  52.8960820  38.2978240  34.8128580  53.9479690  38.9900680
  18.9617320  53.8108740  34.9103030  19.7196680  53.9237620  34.3367060
  18.4994490  54.6477940  34.8646460  25.5031130  55.9248010  37.9005340
  24.6905640  55.5504900  37.5601220  26.0072770  55.1693090  38.2026530
  21.3342470  54.3372790  33.4505000  21.8635230  53.5502590  33.3212950
  21.9670790  55.0163980  33.6840530  23.5280310  54.0747930  36.5050390
  22.8983050  53.3735240  36.6720520  22.9885450  54.8352060  36.2883550
  23.6535870  53.3531910  48.9402880  23.3720140  53.8565510  48.1763700
  24.0355570  52.5553660  48.5745010  30.2551330  52.7685490  49.5183350
  30.1416780  53.0880100  50.4134870  31.0721070  53.1698000  49.2220630
  29.1609480  60.7877960  19.8818090  29.0803530  59.8732570  19.6109800
  28.7473900  61.2845030  19.1757800  27.2927520  62.5656980  21.7627360
  26.5169620  62.0857420  22.0525930  27.9440450  61.8862630  21.5883520
  21.3093350  62.8776790  22.6403120  20.4778230  62.6225500  23.0399630
  21.9174330  62.9487560  23.3761040  19.7185300  57.8378680  16.4245510
  18.8302000  58.1794650  16.3225390  20.0026490  57.6379000  15.5326340
  17.6818310  60.4384330  22.3085210  18.2534420  59.6706530  22.3088850
  17.6819850  60.7373090  21.3991820  18.9243180  55.8468690  24.0954140
  18.7446020  54.9494440  24.3756900  18.5223260  56.3940560  24.7701090
  27.7641680  58.0484550  21.9966450  28.1406500  57.1756430  21.8840120
  27.6661190  58.3843250  21.1056890  21.8946690  56.4210180  17.4583890
  22.0013440  57.3213910  17.7652650  20.9839050  56.3728150  17.1678540
  31.5465800  55.5434990  18.9294790  32.3675420  55.0531560  18.9720270
  31.5799880  56.1332650  19.6826630  19.5429850  58.3429190  22.7036480
  20.2239960  58.6067560  23.3223880  19.2277900  57.5030060  23.0374490
  23.7354420  59.3896550  21.7909070  24.2432640  59.8877520  22.4314090
  24.2667660  58.6131750  21.6148430  35.8365350  57.5601740  25.4938420
  35.1317520  57.9483450  24.9753530  36.1023270  58.2552030  26.0959350
  22.0190520  54.0295110  26.0572490  22.0208960  54.5467500  25.2518390
  21.1894830  53.5525290  26.0342420  28.4061610  64.1414420  17.5562390
  27.7878880  64.6063870  16.9925110  28.9184860  64.8341900  17.9731900
  23.2693370  63.6690290  24.2345990  22.9362750  64.2959210  24.8767060
  23.4460050  64.1952170  23.4547660  31.7827280  57.4835370  21.7022330
  31.0782850  57.7720260  22.2825440  32.1439440  58.2935480  21.3421890
  21.7005850  55.7405070  24.0642940  22.0422660  56.5847120  23.7696810
  20.7621660  55.8888810  24.1808280  34.8514200  56.9290160  22.0931540
  33.9039110  56.9629140  22.2246970  35.1764190  57.7429110  22.4780900
  25.3833740  53.2287340  20.3887530  25.6908720  52.6734230  19.6723030
  24.4534440  53.3631800  20.2060520  30.3334240  63.8484470  24.0077600
  30.7503030  63.6344580  23.1731060  31.0574060  64.1057260  24.5786220
  27.7714500  61.2936170  17.1247650  26.8443780  61.2273550  17.3536120
  27.9239320  62.2316300  17.0102890  27.7583580  57.5653170  14.1214810
  26.8187250  57.7267130  14.2067270  28.0766840  58.2838850  13.5750800
  34.2796340  62.2471690  24.0993840  33.4514970  62.3164780  23.6243970
  34.8746820  62.8326000  23.6309670  31.8011790  62.8556470  17.6282900
  31.1824210  62.5176020  16.9809200  31.7836240  62.2116230  18.3362090
  31.2438350  59.0341010  25.0448710  30.8309530  59.8594720  25.2988700
  30.5114300  58.4486050  24.8525070  23.3771140  61.8200910  19.9067380
  22.9728140  61.1078160  19.4113280  23.4634260  61.4754150  20.7955420
  22.0899760  58.5944120  23.6866420  22.6414350  58.7039460  22.9119670
  22.6043270  58.9681720  24.4021650  29.9776490  62.0943280  14.6355650
  30.4169770  61.2565710  14.4893470  30.6904910  62.7272680  14.7219790
  21.7642490  62.1163480  27.2971760  21.6250260  62.9886280  27.6659160
  20.8823850  61.7736290  27.1519700  33.5593630  53.3486090  12.9496690
  33.2466290  53.4412920  13.8495760  34.3206100  53.9267120  12.8994120
  20.0775770  60.7145890  17.4074030  19.9573370  61.4407980  16.7955300
  19.7676660  59.9448800  16.9301940  17.7161140  63.8861030  23.2142670
  17.7941560  64.0209800  22.2698390  18.3302820  63.1776920  23.4070790
  34.7694920  58.0857590  28.9270830  34.1539190  58.5937260  28.3986290
  34.4491340  57.1855920  28.8696770  17.7720660  64.9275200  25.7537130
  17.9351700  64.4580560  24.9356500  18.2373110  64.4198760  26.4185970
  22.5439430  54.0580960  20.7897700  22.1007580  54.8390500  20.4582220
  23.1024420  54.3810850  21.4968640  26.8309240  56.9249480  26.3933020
  26.3688610  57.1332500  27.2052960  26.4287350  56.1108830  26.0903690
  31.8313750  58.1458430  27.5229680  30.9807340  57.8464180  27.8438750
  31.6715540  58.3900440  26.6113500  28.9263460  59.6460180  29.6228470
  29.2516870  58.8123930  29.2830700  29.7143790  60.1688700  29.7706800
  25.6598250  53.6791660  15.6703530  25.0352430  53.6751530  16.3956840
  25.5728370  52.8122620  15.2739500  24.5815330  54.6028290  22.6487300
  24.8787660  55.5091120  22.5679320  25.1300890  54.1147070  22.0346870
  22.3353650  59.1814530  18.5178950  22.1094570  58.9651700  19.4225570
  21.5546180  59.6142990  18.1724920  29.5651410  59.1877900  17.1169600
  28.9660300  59.9113700  16.9333220  30.1131020  59.1254680  16.3346050
  24.7752860  60.0800110  29.1839220  24.6796460  59.1394840  29.0339620
  25.6184840  60.3015180  28.7887290  28.1716280  57.8241440  19.1472880
  28.5645850  58.1413640  18.3341570  28.5333130  56.9453320  19.2617400
  19.9063400  56.4913780  27.3373000  19.5126790  57.3388990  27.5445780
  19.2181800  55.8540150  27.5281640  26.4808450  56.5748750  30.4069740
  25.7906770  56.3820950  31.0415830  27.2240750  56.8583390  30.9394040
  17.2080450  54.4142240  21.3703080  16.9193500  54.9845100  22.0828060
  17.9526210  53.9346690  21.7334310  17.3950680  58.3562360  12.5805800
  17.3125350  59.2993120  12.7220790  17.0433740  58.2137270  11.7018150
  28.7571420  60.4147190  23.2423660  28.0252540  60.9234000  23.5913760
  28.3595760  59.5977170  22.9412440  25.1948810  57.0901390  21.6476150
  25.1984870  56.6491340  20.7980690  26.0899930  57.4118720  21.7547970
  21.0451190  56.9727880  20.6070360  20.7051240  57.4503110  21.3637410
  20.2828510  56.5193000  20.2471460  25.2568960  58.0913470  14.6382910
  25.3781780  58.0499950  15.5868730  24.8717470  58.9537620  14.4829640
  29.2197330  55.8680870  22.6546600  29.2370070  56.3189520  23.4988450
  28.9712910  54.9686510  22.8680040  24.2690460  60.4014610  14.0366210
  23.7007360  59.9532860  13.4102120  24.9779460  60.7607390  13.5031360
  19.3459640  64.3026630  27.9132940  18.9614430  63.6620300  28.5115900
  19.6571830  65.0062750  28.4827670  25.4956780  61.1503170  23.3941560
  25.8626910  60.6761740  24.1402900  25.3061840  62.0244740  23.7349900
  18.3597270  55.8946860  19.5235030  18.0744190  55.5302530  20.3613650
  18.2976130  55.1627320  18.9098170  23.2856150  60.1911810  25.7125770
  22.9813220  61.0703790  25.9376130  24.2402610  60.2511600  25.7483210
  21.8137940  64.3972800  16.3092620  21.0400200  63.8570420  16.1491340
  22.5432570  63.8779410  15.9710380  32.5725920  63.3938160  22.1019010
  33.2925040  63.8893450  21.7115120  32.3707740  62.7156050  21.4572880
  28.0335860  54.7876120  16.2448400  27.2200470  54.2889290  16.1693710
  27.8397810  55.6274370  15.8284750  27.9544720  63.4647220  27.9888010
  27.8882030  62.5442890  27.7345600  27.3249860  63.5622660  28.7032650
  30.7484250  59.1595770  14.5410560  31.6363870  59.4713000  14.3661900
  30.7189340  58.2868020  14.1491140  21.8575340  64.0653180  19.9471430
  22.3754010  63.2621440  19.8928320  21.4059360  64.0032320  20.7888260
  19.3419880  61.0314550  26.8597130  18.9834820  61.6968400  27.4470470
  19.0474440  60.1998100  27.2309750  22.5433000  61.4898790  29.7436680
  22.2433140  61.6355970  28.8464500  23.3144240  60.9304080  29.6510070
  33.0198520  60.4707610  14.0090420  32.9362240  60.9021830  13.1586860
  33.7392710  60.9305960  14.4417240  34.0972660  62.9275130  27.0860390
  33.3720850  63.5203910  26.8889780  34.6248120  62.9198670  26.2873760
  29.6272250  64.6535300  20.5844240  29.9796070  64.0563430  19.9245610
  28.7434580  64.3279530  20.7552490  17.8527930  61.0305810  13.4831730
  18.7222780  61.3130610  13.7667650  17.3618250  61.8441680  13.3680540
  25.0162740  62.4179020  17.6040010  25.4725520  63.2284270  17.8300200
  24.6650950  62.1002160  18.4358500  20.9174520  52.7616670  18.0762530
  20.7889150  52.7534570  19.0247450  20.0936540  53.0999760  17.7253540
  17.9168450  54.5207790  27.5369230  17.2026970  54.7204710  28.1421840
  18.3363490  53.7447360  27.9084030  32.0199400  64.1338270  14.9363060
  31.7321100  64.5950960  15.7240940  32.8151570  63.6736040  15.2047280
  19.8374440  62.8479280  15.6113790  19.2302390  63.5878180  15.6209090
  20.3123790  62.9378640  14.7851990  29.4107230  57.0130100  25.2870680
  29.7788050  56.1925310  25.6150250  28.5505430  57.0731990  25.7026330
  32.7769260  55.9687040  16.0958240  32.1482420  56.0732710  15.3816470
  32.2821180  56.1883820  16.8852120  24.7453290  58.2472990  17.5116120
  24.0369440  58.7159330  17.9529730  25.0297770  57.5895000  18.1461310
  26.3709220  59.6669690  25.5108650  26.8694470  60.1415510  26.1760500
  26.5132170  58.7433210  25.7178680  28.7768720  54.9723650  18.9511910
  28.6536500  54.9909780  18.0021420  29.7253280  55.0202590  19.0710310
  22.9488310  56.5558070  14.8866830  23.7978840  56.9928220  14.8207020
  22.5819580  56.8678330  15.7138890  33.5776080  55.8837650  26.3537040
  33.0749680  56.6243050  26.6930850  34.3932740  56.2721650  26.0373830
  31.8698090  61.1270830  19.7998400  30.9288230  61.1421060  19.9746090
  32.1842160  60.3406790  20.2458700  21.8479730  62.8090430  13.3602360
  22.6143000  62.6971790  13.9227790  21.9254420  62.1128400  12.7079130
  20.5426490  60.2415500  14.0435250  20.6230080  59.2943010  14.1552650
  21.4346240  60.5722380  14.1495910  18.0697290  62.0630420  29.2791420
  18.5736310  61.4837700  29.8507650  17.3304710  62.3470650  29.8167790
  24.9720910  64.7844610  12.8337710  24.8671550  64.1696960  13.5599090
  24.8045130  64.2610500  12.0500720  25.1235230  63.4701410  28.8126940
  24.3580900  64.0386410  28.7281610  25.3051190  63.1777620  27.9195170
  28.2123640  63.8464640  13.4379700  27.6633740  64.2933940  14.0822440
  28.8342900  63.3413890  13.9617370  20.1020370  60.2060010  30.1741490
  20.1425710  59.9073880  31.0826720  20.9565870  60.6067620  30.0149010
  23.8798760  62.8055560  15.3345000  24.3015180  62.6395430  16.1776390
  24.0049600  61.9955790  14.8400140  22.0426180  58.7852110  28.1415980
  21.5122640  58.2943060  27.5139320  22.7114250  59.2136310  27.6073910
  26.3926400  61.8293170  12.5822100  26.9132060  61.1142190  12.2163250
  27.0394800  62.4679040  12.8822610  30.9404240  63.2521570  27.9057170
  31.3545260  63.4066650  28.7547590  30.0055240  63.3776790  28.0682950
  31.4126410  60.5917730  29.9096320  31.9947180  59.8370050  29.8216800
  31.5888180  61.1225170  29.1327800  22.5298480  55.7514480  28.2213270
  22.4355350  55.1335230  27.4964140  21.9495870  56.4780770  27.9943180
  25.2959920  54.3087720  25.2540660  24.8477220  54.3311980  24.4086210
  24.6625120  53.9106740  25.8510960  25.7019470  63.2042050  25.8753100
  26.1207580  64.0474780  25.7029340  24.7828100  63.3414090  25.6459880
  28.0383370  60.9358230  27.2590940  28.1579580  60.3399370  27.9985780
  28.8977370  60.9727920  26.8392240  30.3771270  61.4895420  25.8353450
  29.8506490  62.0138040  25.2318590  30.7202610  62.1222810  26.4663180
  22.7757660  58.8788790  12.2803160  22.5746720  58.0156150  12.6416500
  22.6049710  58.7922150  11.3424760  24.8052140  57.4779580  28.5166760
  25.3951830  57.1695430  29.2044580  23.9872380  57.0059330  28.6726660
  29.6245570  57.0945390  28.7499780  28.9361090  56.4326930  28.6849770
  30.3451590  56.6483660  29.1948240  30.2545970  53.6897020  14.8090040
  30.5348260  52.8464920  15.1649460  29.4811700  53.9220130  15.3228790
  21.5740460  55.9789410  12.2681040  21.8766360  55.9856840  11.3600190
  22.3135050  55.6287270  12.7648700  24.7925390  54.9224030  13.2537240
  24.4447390  54.2448020  12.6739690  24.9938160  54.4613540  14.0680630
  34.6326690  62.9273750  15.4193950  35.3945600  63.4970400  15.5253640
  34.6481060  62.3600950  16.1902260  18.1331030  61.4511680  19.6501610
  17.4779870  61.1823320  19.0061310  18.9708980  61.3416160  19.2003590
  35.6386660  63.7823850  20.2635880  36.0095490  62.9991170  19.8571850
  36.2788590  64.4712950  20.0853180  34.6845860  63.2208120  12.5766470
  34.9594700  64.1287000  12.4485690  34.4956600  63.1570650  13.5128460
  31.0821470  56.2452970  13.8720100  31.5006350  56.0583950  13.0316760
  30.7757530  55.3932020  14.1823030  34.5811200  61.1577110  17.5695900
  34.2054800  60.3905040  17.1377190  33.8514320  61.5399810  18.0570830
  19.1706960  61.8364250  24.1904950  19.5380000  61.7491650  25.0700970
  18.6017780  61.0730800  24.0911810  33.9710820  60.3048630  27.2035420
  33.7396910  60.0761380  26.3033370  34.2315370  61.2248180  27.1580310
  18.7222960  58.7473340  28.0963370  17.8279010  58.7140100  28.4357080
  19.2620510  58.9460130  28.8614620  32.4098890  55.5305060  29.9815120
  33.2869070  55.5388460  30.3649120  32.4219730  54.7935900  29.3707470
  17.3469110  58.6610610  15.5926940  16.4433190  58.9240810  15.4178600
  17.8309730  58.9321780  14.8126900  33.8562160  59.3834600  20.8703140
  34.3799640  58.8897250  20.2393310  34.4421580  59.5184960  21.6150710
  34.0351880  59.4674470  24.3922690  33.0854590  59.4338010  24.5067680
  34.2164890  60.3774580  24.1572460  19.8896320  57.7176150  13.5021320
  20.5988020  57.2959370  13.0168600  19.1736260  57.7851380  12.8704670
  19.5370480  53.7715480  12.5423970  20.2598610  54.3124420  12.8605190
  19.8095000  53.4978900  11.6665510  33.3462130  58.6407950  16.8095550
  33.8421250  58.4078820  17.5944430  33.1478200  57.8019790  16.3933190
  19.2262670  53.0221670  22.4446590  19.8738860  52.4719050  22.0041750
  19.6464510  53.2764820  23.2662400  34.7749290  57.2768900  19.3433230
  34.6648570  57.1224940  20.2815500  35.5356880  56.7489840  19.1008640
  33.1215010  53.2163030  25.8016230  33.7587230  53.8297170  26.1675420
  33.2689900  53.2523690  24.8565460  35.6639560  55.1076820  12.5839370
  36.5888870  54.9758000  12.3757660  35.6415350  55.1869640  13.5375820
  35.7378050  55.8787480  15.2096080  34.9429550  55.8132600  15.7388990
  35.9421330  56.8138120  15.1981430  18.9794670  53.1777340  25.1871910
  18.6309490  53.6341160  25.9530090  18.6482370  52.2834470  25.2694340
  26.4919490  54.3689220  28.7091330  26.4308380  54.9611050  29.4586740
  27.4319870  54.2615180  28.5641590  29.1294050  54.0259280  28.3483620
  29.7434460  54.3438570  27.6864700  29.6743610  53.5407870  28.9679480
  19.6515310  52.7053540  28.4622680  20.1998300  52.5241590  27.6988790
  19.7170620  51.9147650  28.9978990  29.8702090  52.5891420  24.6752910
  28.9961930  52.9226530  24.4725840  29.7612840  52.1164600  25.5004780
  30.7774070  54.7962290  26.0594630  30.4487430  53.9814050  25.6796360
  31.7256370  54.7532100  25.9360320  27.6176910  53.5061260  23.6145820
  26.8348700  53.9806760  23.8942580  27.3239840  52.6016090  23.5059000
  32.1697980  54.2084360  21.6594910  32.6106070  54.1529460  20.8116510
  31.9005570  55.1242370  21.7305090  34.0336550  53.8399600  19.6703730
  33.9724950  52.8960820  19.5234750  34.8128580  53.9479690  20.2157190
  18.9617320  53.8108740  16.1359540  19.7196680  53.9237620  15.5623570
  18.4994490  54.6477940  16.0902970  25.5031130  55.9248010  19.1261850
  24.6905640  55.5504900  18.7857730  26.0072770  55.1693090  19.4283040
  30.0056110  52.5890460  20.3644920  30.6085480  53.1610670  20.8393440
  29.2649100  53.1529900  20.1418820  33.1490710  52.9912020  15.6385200
  33.3441340  53.8895470  15.9052630  32.3620580  52.7599100  16.1318150
  21.3342470  54.3372790  14.6761510  21.8635230  53.5502590  14.5469460
  21.9670790  55.0163980  14.9097040  23.5280310  54.0747930  17.7306900
  22.8983050  53.3735240  17.8977030  22.9885450  54.8352060  17.5140060
  23.6535870  53.3531910  30.1659390  23.3720140  53.8565510  29.4020210
  24.0355570  52.5553660  29.8001520  27.2927520  62.5656980   2.9883870
  26.5169620  62.0857420   3.2782440  27.9440450  61.8862630   2.8140030
  21.3093350  62.8776790   3.8659630  20.4778230  62.6225500   4.2656140
  21.9174330  62.9487560   4.6017550  17.6818310  60.4384330   3.5341720
  18.2534420  59.6706530   3.5345360  17.6819850  60.7373090   2.6248330
  18.9243180  55.8468690   5.3210650  18.7446020  54.9494440   5.6013410
  18.5223260  56.3940560   5.9957600  27.7641680  58.0484550   3.2222960
  28.1406500  57.1756430   3.1096630  27.6661190  58.3843250   2.3313400
  19.5429850  58.3429190   3.9292990  20.2239960  58.6067560   4.5480390
  19.2277900  57.5030060   4.2631000  23.7354420  59.3896550   3.0165580
  24.2432640  59.8877520   3.6570600  24.2667660  58.6131750   2.8404940
  35.8365350  57.5601740   6.7194930  35.1317520  57.9483450   6.2010040
  36.1023270  58.2552030   7.3215860  22.0190520  54.0295110   7.2829000
  22.0208960  54.5467500   6.4774900  21.1894830  53.5525290   7.2598930
  23.2693370  63.6690290   5.4602500  22.9362750  64.2959210   6.1023570
  23.4460050  64.1952170   4.6804170  31.7827280  57.4835370   2.9278840
  31.0782850  57.7720260   3.5081950  32.1439440  58.2935480   2.5678400
  21.7005850  55.7405070   5.2899450  22.0422660  56.5847120   4.9953320
  20.7621660  55.8888810   5.4064790  34.8514200  56.9290160   3.3188050
  33.9039110  56.9629140   3.4503480  35.1764190  57.7429110   3.7037410
  30.3334240  63.8484470   5.2334110  30.7503030  63.6344580   4.3987570
  31.0574060  64.1057260   5.8042730  34.2796340  62.2471690   5.3250350
  33.4514970  62.3164780   4.8500480  34.8746820  62.8326000   4.8566180
  31.2438350  59.0341010   6.2705220  30.8309530  59.8594720   6.5245210
  30.5114300  58.4486050   6.0781580  22.0899760  58.5944120   4.9122930
  22.6414350  58.7039460   4.1376180  22.6043270  58.9681720   5.6278160
  21.7642490  62.1163480   8.5228270  21.6250260  62.9886280   8.8915670
  20.8823850  61.7736290   8.3776210  17.7161140  63.8861030   4.4399180
  17.7941560  64.0209800   3.4954900  18.3302820  63.1776920   4.6327300
  34.7694920  58.0857590  10.1527340  34.1539190  58.5937260   9.6242800
  34.4491340  57.1855920  10.0953280  17.7720660  64.9275200   6.9793640
  17.9351700  64.4580560   6.1613010  18.2373110  64.4198760   7.6442480
  22.5439430  54.0580960   2.0154210  22.1007580  54.8390500   1.6838730
  23.1024420  54.3810850   2.7225150  26.8309240  56.9249480   7.6189530
  26.3688610  57.1332500   8.4309470  26.4287350  56.1108830   7.3160200
  31.8313750  58.1458430   8.7486190  30.9807340  57.8464180   9.0695260
  31.6715540  58.3900440   7.8370010  28.9263460  59.6460180  10.8484980
  29.2516870  58.8123930  10.5087210  29.7143790  60.1688700  10.9963310
  24.5815330  54.6028290   3.8743810  24.8787660  55.5091120   3.7935830
  25.1300890  54.1147070   3.2603380  24.7752860  60.0800110  10.4095730
  24.6796460  59.1394840  10.2596130  25.6184840  60.3015180  10.0143800
  19.9063400  56.4913780   8.5629510  19.5126790  57.3388990   8.7702290
  19.2181800  55.8540150   8.7538150  26.4808450  56.5748750  11.6326250
  25.7906770  56.3820950  12.2672340  27.2240750  56.8583390  12.1650550
  17.2080450  54.4142240   2.5959590  16.9193500  54.9845100   3.3084570
  17.9526210  53.9346690   2.9590820  28.7571420  60.4147190   4.4680170
  28.0252540  60.9234000   4.8170270  28.3595760  59.5977170   4.1668950
  25.1948810  57.0901390   2.8732660  25.1984870  56.6491340   2.0237200
  26.0899930  57.4118720   2.9804480  21.0451190  56.9727880   1.8326870
  20.7051240  57.4503110   2.5893920  20.2828510  56.5193000   1.4727970
  29.2197330  55.8680870   3.8803110  29.2370070  56.3189520   4.7244960
  28.9712910  54.9686510   4.0936550  32.6468080  53.2813050   9.7189490
  32.9713850  52.5502710  10.2447470  32.6824590  52.9626690   8.8170480
  19.3459640  64.3026630   9.1389450  18.9614430  63.6620300   9.7372410
  19.6571830  65.0062750   9.7084180  25.4956780  61.1503170   4.6198070
  25.8626910  60.6761740   5.3659410  25.3061840  62.0244740   4.9606410
  23.2856150  60.1911810   6.9382280  22.9813220  61.0703790   7.1632640
  24.2402610  60.2511600   6.9739720  32.5725920  63.3938160   3.3275520
  33.2925040  63.8893450   2.9371630  32.3707740  62.7156050   2.6829390
  27.9544720  63.4647220   9.2144520  27.8882030  62.5442890   8.9602110
  27.3249860  63.5622660   9.9289160  19.3419880  61.0314550   8.0853640
  18.9834820  61.6968400   8.6726980  19.0474440  60.1998100   8.4566260
  22.5433000  61.4898790  10.9693190  22.2433140  61.6355970  10.0721010
  23.3144240  60.9304080  10.8766580  34.0972660  62.9275130   8.3116900
  33.3720850  63.5203910   8.1146290  34.6248120  62.9198670   7.5130270
  17.9168450  54.5207790   8.7625740  17.2026970  54.7204710   9.3678350
  18.3363490  53.7447360   9.1340540  29.4107230  57.0130100   6.5127190
  29.7788050  56.1925310   6.8406760  28.5505430  57.0731990   6.9282840
  26.3709220  59.6669690   6.7365160  26.8694470  60.1415510   7.4017010
  26.5132170  58.7433210   6.9435190  33.5776080  55.8837650   7.5793550
  33.0749680  56.6243050   7.9187360  34.3932740  56.2721650   7.2630340
  18.0697290  62.0630420  10.5047930  18.5736310  61.4837700  11.0764160
  17.3304710  62.3470650  11.0424300  25.1235230  63.4701410  10.0383450
  24.3580900  64.0386410   9.9538120  25.3051190  63.1777620   9.1451680
  20.1020370  60.2060010  11.3998000  20.1425710  59.9073880  12.3083230
  20.9565870  60.6067620  11.2405520  22.0426180  58.7852110   9.3672490
  21.5122640  58.2943060   8.7395830  22.7114250  59.2136310   8.8330420
  30.9404240  63.2521570   9.1313680  31.3545260  63.4066650   9.9804100
  30.0055240  63.3776790   9.2939460  31.4126410  60.5917730  11.1352830
  31.9947180  59.8370050  11.0473310  31.5888180  61.1225170  10.3584310
  22.5298480  55.7514480   9.4469780  22.4355350  55.1335230   8.7220650
  21.9495870  56.4780770   9.2199690  25.2959920  54.3087720   6.4797170
  24.8477220  54.3311980   5.6342720  24.6625120  53.9106740   7.0767470
  25.7019470  63.2042050   7.1009610  26.1207580  64.0474780   6.9285850
  24.7828100  63.3414090   6.8716390  28.0383370  60.9358230   8.4847450
  28.1579580  60.3399370   9.2242290  28.8977370  60.9727920   8.0648750
  30.3771270  61.4895420   7.0609960  29.8506490  62.0138040   6.4575100
  30.7202610  62.1222810   7.6919690  24.8052140  57.4779580   9.7423270
  25.3951830  57.1695430  10.4301090  23.9872380  57.0059330   9.8983170
  29.6245570  57.0945390   9.9756290  28.9361090  56.4326930   9.9106280
  30.3451590  56.6483660  10.4204750  19.1706960  61.8364250   5.4161460
  19.5380000  61.7491650   6.2957480  18.6017780  61.0730800   5.3168320
  33.9710820  60.3048630   8.4291930  33.7396910  60.0761380   7.5289880
  34.2315370  61.2248180   8.3836820  18.7222960  58.7473340   9.3219880
  17.8279010  58.7140100   9.6613590  19.2620510  58.9460130  10.0871130
  32.4098890  55.5305060  11.2071630  33.2869070  55.5388460  11.5905630
  32.4219730  54.7935900  10.5963980  33.8562160  59.3834600   2.0959650
  34.3799640  58.8897250   1.4649820  34.4421580  59.5184960   2.8407220
  34.0351880  59.4674470   5.6179200  33.0854590  59.4338010   5.7324190
  34.2164890  60.3774580   5.3828970  19.2262670  53.0221670   3.6703100
  19.8738860  52.4719050   3.2298260  19.6464510  53.2764820   4.4918910
  33.1215010  53.2163030   7.0272740  33.7587230  53.8297170   7.3931930
  33.2689900  53.2523690   6.0821970  18.9794670  53.1777340   6.4128420
  18.6309490  53.6341160   7.1786600  18.6482370  52.2834470   6.4950850
  26.4919490  54.3689220   9.9347840  26.4308380  54.9611050  10.6843250
  27.4319870  54.2615180   9.7898100  29.1294050  54.0259280   9.5740130
  29.7434460  54.3438570   8.9121210  29.6743610  53.5407870  10.1935990
  19.6515310  52.7053540   9.6879190  20.1998300  52.5241590   8.9245300
  19.7170620  51.9147650  10.2235500  29.8702090  52.5891420   5.9009420
  28.9961930  52.9226530   5.6982350  29.7612840  52.1164600   6.7261290
  30.7774070  54.7962290   7.2851140  30.4487430  53.9814050   6.9052870
  31.7256370  54.7532100   7.1616830  27.6176910  53.5061260   4.8402330
  26.8348700  53.9806760   5.1199090  27.3239840  52.6016090   4.7315510
  32.1697980  54.2084360   2.8851420  32.6106070  54.1529460   2.0373020
  31.9005570  55.1242370   2.9561600  23.6535870  53.3531910  11.3915900
  23.3720140  53.8565510  10.6276720  24.0355570  52.5553660  11.0258030
  30.2551330  52.7685490  11.9696370  30.1416780  53.0880100  12.8647890
  31.0721070  53.1698000  11.6733650  29.1609480  42.0134470  57.4305070
  29.0803530  41.0989080  57.1596780  28.7473900  42.5101540  56.7244780
  27.2927520  43.7913490  59.3114340  26.5169620  43.3113930  59.6012910
  27.9440450  43.1119140  59.1370500  31.3134950  48.1973680  58.0913470
  30.8516480  47.4260920  58.4200640  32.1260500  48.2239750  58.5965920
  19.7185300  39.0635190  53.9732490  18.8302000  39.4051160  53.8712370
  20.0026490  38.8635510  53.0813320  17.6818310  41.6640840  59.8572190
  18.2534420  40.8963040  59.8575830  17.6819850  41.9629600  58.9478800
  27.5398260  50.4831690  57.7117460  26.9209700  50.9389190  57.1411900
  28.3950040  50.6383150  57.3107160  26.7336510  46.4670680  59.3184500
  26.6644790  45.5260620  59.1573630  27.4956370  46.5572090  59.8907070
  27.7641680  39.2741060  59.5453430  28.1406500  38.4012940  59.4327100
  27.6661190  39.6099760  58.6543870  21.8946690  37.6466690  55.0070870
  22.0013440  38.5470420  55.3139630  20.9839050  37.5984660  54.7165520
  31.5465800  36.7691500  56.4781770  32.3675420  36.2788070  56.5207250
  31.5799880  37.3589160  57.2313610  23.7354420  40.6153060  59.3396050
  24.2432640  41.1134030  59.9801070  24.2667660  39.8388260  59.1635410
  28.4061610  45.3670930  55.1049370  27.7878880  45.8320380  54.5412090
  28.9184860  46.0598410  55.5218880  31.7827280  38.7091880  59.2509310
  31.0782850  38.9976770  59.8312420  32.1439440  39.5191990  58.8908870
  17.7744810  46.0527460  52.4789000  17.3972790  46.5414560  51.7473900
  18.0317880  46.7252740  53.1095530  34.8514200  38.1546670  59.6418520
  33.9039110  38.1885650  59.7733950  35.1764190  38.9685620  60.0267880
  25.3833740  34.4543850  57.9374510  25.6908720  33.8990740  57.2210010
  24.4534440  34.5888310  57.7547500  30.9348800  50.1711140  60.2281970
  30.9475960  49.7673430  59.3604230  30.3824020  50.9458430  60.1243400
  32.2294220  46.8927360  55.3172140  32.1190550  45.9501690  55.4421560
  32.2262470  47.2543000  56.2034900  27.7714500  42.5192680  54.6734630
  26.8443780  42.4530060  54.9023100  27.9239320  43.4572810  54.5589870
  27.7583580  38.7909680  51.6701790  26.8187250  38.9523640  51.7554250
  28.0766840  39.5095360  51.1237780  31.8011790  44.0812980  55.1769880
  31.1824210  43.7432530  54.5296180  31.7836240  43.4372740  55.8849070
  23.3771140  43.0457420  57.4554360  22.9728140  42.3334670  56.9600260
  23.4634260  42.7010660  58.3442400  23.8452840  46.7324980  59.6193570
  23.5481130  46.1270450  58.9401350  24.7952660  46.7702290  59.5082930
  29.9776490  43.3199790  52.1842630  30.4169770  42.4822220  52.0380450
  30.6904910  43.9529190  52.2706770  28.0871870  48.2595860  56.1523870
  28.5267780  49.0020190  55.7379260  28.0258760  48.5022430  57.0762830
  20.0775770  41.9402400  54.9561010  19.9573370  42.6664490  54.3442280
  19.7676660  41.1705310  54.4788920  18.9608770  46.8117730  57.1735830
  18.5536850  46.9532320  56.3189430  19.8521780  46.5277890  56.9707040
  30.7542050  51.2464980  53.5086880  30.5943190  50.9567920  54.4068710
  30.5888760  50.4705110  52.9732110  23.2330430  51.0263510  55.2858500
  23.0572910  50.1099050  55.0726300  22.3786170  51.3850800  55.5256300
  30.4568180  48.7552540  52.0684880  29.7633340  48.7529830  51.4087160
  31.1991040  48.3311860  51.6379050  30.0218110  50.3815250  56.1433370
  30.4775060  49.6004630  56.4571990  30.3610630  51.0922070  56.6874550
  22.5439430  35.2837470  58.3384680  22.1007580  36.0647010  58.0069200
  23.1024420  35.6067360  59.0455620  25.6598250  34.9048170  53.2190510
  25.0352430  34.9008040  53.9443820  25.5728370  34.0379130  52.8226480
  24.5815330  35.8284800  60.1974280  24.8787660  36.7347630  60.1166300
  25.1300890  35.3403580  59.5833850  22.3353650  40.4071040  56.0665930
  22.1094570  40.1908210  56.9712550  21.5546180  40.8399500  55.7211900
  29.5651410  40.4134410  54.6656580  28.9660300  41.1370210  54.4820200
  30.1131020  40.3511190  53.8833030  28.1716280  39.0497950  56.6959860
  28.5645850  39.3670150  55.8828550  28.5333130  38.1709830  56.8104380
  17.2080450  35.6398750  58.9190060  16.9193500  36.2101610  59.6315040
  17.9526210  35.1603200  59.2821290  25.1948810  38.3157900  59.1963130
  25.1984870  37.8747850  58.3467670  26.0899930  38.6375230  59.3034950
  21.0451190  38.1984390  58.1557340  20.7051240  38.6759620  58.9124390
  20.2828510  37.7449510  57.7958440  25.2568960  39.3169980  52.1869890
  25.3781780  39.2756460  53.1355710  24.8717470  40.1794130  52.0316620
  24.2690460  41.6271120  51.5853190  23.7007360  41.1789370  50.9589100
  24.9779460  41.9863900  51.0518340  18.3597270  37.1203370  57.0722010
  18.0744190  36.7559040  57.9100630  18.2976130  36.3883830  56.4585150
  21.8137940  45.6229310  53.8579600  21.0400200  45.0826930  53.6978320
  22.5432570  45.1035920  53.5197360  32.5725920  44.6194670  59.6505990
  33.2925040  45.1149960  59.2602100  32.3707740  43.9412560  59.0059860
  28.0335860  36.0132630  53.7935380  27.2200470  35.5145800  53.7180690
  27.8397810  36.8530880  53.3771730  30.7484250  40.3852280  52.0897540
  31.6363870  40.6969510  51.9148880  30.7189340  39.5124530  51.6978120
  21.8575340  45.2909690  57.4958410  22.3754010  44.4877950  57.4415300
  21.4059360  45.2288830  58.3375240  26.7444840  46.5575970  52.7685710
  27.0860540  47.3018200  52.2729030  25.9157550  46.8707090  53.1310540
  34.0485770  48.5506380  54.2859530  33.4061930  47.8962000  54.5603250
  33.6616430  48.9561470  53.5100200  29.6272250  45.8791810  58.1331220
  29.9796070  45.2819940  57.4732590  28.7434580  45.5536040  58.3039470
  25.7135530  46.6389500  55.5401630  26.4006660  47.1858710  55.9209220
  24.9267950  47.1830230  55.5751240  17.8527930  42.2562320  51.0318710
  18.7222780  42.5387120  51.3154630  17.3618250  43.0698190  50.9167520
  25.0162740  43.6435530  55.1526990  25.4725520  44.4540780  55.3787180
  24.6650950  43.3258670  55.9845480  20.9174520  33.9873180  55.6249510
  20.7889150  33.9791080  56.5734430  20.0936540  34.3256270  55.2740520
  32.4383150  47.4422840  50.8235880  32.2120730  46.7253280  51.4160520
  32.0479350  47.1935280  49.9857630  18.2199180  51.4689700  51.5980340
  18.5796820  52.0679040  50.9437610  18.0791520  52.0149590  52.3715370
  32.0199400  45.3594780  52.4850040  31.7321100  45.8207470  53.2727920
  32.8151570  44.8992550  52.7534260  24.2367800  48.8520900  52.4154010
  24.2277900  49.5850590  51.7998520  23.3166160  48.6052480  52.5080970
  19.8374440  44.0735790  53.1600770  19.2302390  44.8134690  53.1696070
  20.3123790  44.1635150  52.3338970  32.7769260  37.1943550  53.6445220
  32.1482420  37.2989220  52.9303450  32.2821180  37.4140330  54.4339100
  27.2227400  48.9149140  51.0779200  27.3239380  48.7113130  50.1481180
  26.3229140  48.6607420  51.2826980  24.7453290  39.4729500  55.0603100
  24.0369440  39.9415840  55.5016710  25.0297770  38.8151510  55.6948290
  28.7768720  36.1980160  56.4998890  28.6536500  36.2166290  55.5508400
  29.7253280  36.2459100  56.6197290  25.8645510  51.4335460  55.7726870
  26.1187010  51.3956850  54.8506240  24.9157990  51.3068790  55.7655120
  22.9488310  37.7814580  52.4353810  23.7978840  38.2184730  52.3694000
  22.5819580  38.0934840  53.2625870  31.8698090  42.3527340  57.3485380
  30.9288230  42.3677570  57.5233070  32.1842160  41.5663300  57.7945680
  21.8479730  44.0346940  50.9089340  22.6143000  43.9228300  51.4714770
  21.9254420  43.3384910  50.2566110  20.5426490  41.4672010  51.5922230
  20.6230080  40.5199520  51.7039630  21.4346240  41.7978890  51.6982890
  33.8723670  49.5236190  59.0239640  33.9971090  50.3467360  59.4963450
  34.7389230  49.3126920  58.6763790  21.3441200  51.6167400  58.6956770
  22.0803680  51.0682860  58.9665340  21.7282120  52.4823410  58.5562760
  18.2286680  47.6840970  54.5698280  17.3026460  47.9262110  54.5603690
  18.6943110  48.5115230  54.4483030  24.4543510  50.7897710  50.5182340
  25.2472120  51.0786540  50.0664130  23.9347860  50.3589880  49.8394820
  33.5073680  50.0167840  51.9419080  33.2215190  49.6032980  51.1273260
  33.3093230  50.9455550  51.8219600  24.9720910  46.0101120  50.3824690
  24.8671550  45.3953470  51.1086070  24.8045130  45.4867010  49.5987700
  28.2123640  45.0721150  50.9866680  27.6633740  45.5190450  51.6309420
  28.8342900  44.5670400  51.5104350  23.8798760  44.0312070  52.8831980
  24.3015180  43.8651940  53.7263370  24.0049600  43.2212300  52.3887120
  26.3926400  43.0549680  50.1309080  26.9132060  42.3398700  49.7650230
  27.0394800  43.6935550  50.4309590  30.2545970  34.9153530  52.3577020
  30.5348260  34.0721430  52.7136440  29.4811700  35.1476640  52.8715770
  21.5740460  37.2045920  49.8168020  21.8766360  37.2113350  48.9087170
  22.3135050  36.8543780  50.3135680  24.7925390  36.1480540  50.8024220
  24.4447390  35.4704530  50.2226670  24.9938160  35.6870050  51.6167610
  26.9574430  51.1361290  52.4210820  27.8525220  51.4746260  52.4429580
  26.9892060  50.4140700  51.7935100  20.5970590  46.5088340  50.6497820
  21.0345460  47.0518010  51.3055400  21.0818320  45.6835290  50.6594160
  17.8116390  49.2977370  58.1018080  18.1419400  48.4298430  57.8696720
  18.2407390  49.5035890  58.9323040  22.4078310  47.6286380  55.7620050
  22.1073850  47.5051350  56.6623960  22.3015800  46.7694970  55.3535780
  35.1770230  47.4082780  50.4646730  34.3463190  47.4759430  50.9353960
  35.3542060  48.2986900  50.1613590  34.6326690  44.1530260  52.9680930
  35.3945600  44.7226910  53.0740620  34.6481060  43.5857460  53.7389240
  18.1331030  42.6768190  57.1988590  17.4779870  42.4079830  56.5548290
  18.9708980  42.5672670  56.7490570  35.6386660  45.0080360  57.8122860
  36.0095490  44.2247680  57.4058830  36.2788590  45.6969460  57.6340160
  34.6845860  44.4464630  50.1253450  34.9594700  45.3543510  49.9972670
  34.4956600  44.3827160  51.0615440  31.0821470  37.4709480  51.4207080
  31.5006350  37.2840460  50.5803740  30.7757530  36.6188530  51.7310010
  34.5811200  42.3833620  55.1182880  34.2054800  41.6161550  54.6864170
  33.8514320  42.7656320  55.6057810  17.3469110  39.8867120  53.1413920
  16.4433190  40.1497320  52.9665580  17.8309730  40.1578290  52.3613880
  33.8562160  40.6091110  58.4190120  34.3799640  40.1153760  57.7880290
  34.4421580  40.7441470  59.1637690  19.5370480  34.9971990  50.0910950
  20.2598610  35.5380930  50.4092170  19.8095000  34.7235410  49.2152490
  33.3462130  39.8664460  54.3582530  33.8421250  39.6335330  55.1431410
  33.1478200  39.0276300  53.9420170  34.7749290  38.5025410  56.8920210
  34.6648570  38.3481450  57.8302480  35.5356880  37.9746350  56.6495620
  35.7378050  37.1043990  52.7583060  34.9429550  37.0389110  53.2875970
  35.9421330  38.0394630  52.7468410  32.6796470  51.1435540  56.7521450
  33.2755540  50.8220110  56.0755870  32.9374620  50.6707360  57.5434720
  23.6604400  50.1019080  59.7567310  24.1769420  49.4906440  59.2315570
  24.3101780  50.6047860  60.2478320  32.1697980  35.4340870  59.2081890
  32.6106070  35.3785970  58.3603490  31.9005570  36.3498880  59.2792070
  34.0336550  35.0656110  57.2190710  33.9724950  34.1217330  57.0721730
  34.8128580  35.1736200  57.7644170  18.3389300  51.2048470  56.1814660
  18.1711340  50.5719150  56.8796550  17.4723810  51.4107870  55.8308850
  18.9617320  35.0365250  53.6846520  19.7196680  35.1494130  53.1110550
  18.4994490  35.8734450  53.6389950  25.5031130  37.1504520  56.6748830
  24.6905640  36.7761410  56.3344710  26.0072770  36.3949600  56.9770020
  30.0056110  33.8146970  57.9131900  30.6085480  34.3867180  58.3880420
  29.2649100  34.3786410  57.6905800  33.1490710  34.2168530  53.1872180
  33.3441340  35.1151980  53.4539610  32.3620580  33.9855610  53.6805130
  19.9452000  49.8981700  53.6264800  19.4199620  50.2789730  52.9226760
  19.8696580  50.5232470  54.3474510  21.3342470  35.5629300  52.2248490
  21.8635230  34.7759100  52.0956440  21.9670790  36.2420490  52.4584020
  23.5280310  35.3004440  55.2793880  22.8983050  34.5991750  55.4464010
  22.9885450  36.0608570  55.0627040  34.7017320  51.4569240  54.9478740
  34.8769510  50.7706980  54.3039660  34.0038890  51.9816290  54.5555410
  22.5444970  51.8464080  52.5014050  23.2763790  51.5623360  51.9537940
  22.8038640  51.6077360  53.3913430  21.7059760  47.9628810  52.5060380
  21.0768640  48.4313910  53.0546210  21.8207590  47.1178030  52.9406570
  21.2894610  48.1373390  41.6104630  21.5922650  47.2471130  41.4314850
  22.0338200  48.6943610  41.3826880  17.7744810  46.0527460  33.7045510
  17.3972790  46.5414560  32.9730410  18.0317880  46.7252740  34.3352040
  31.9338450  50.3056850  44.5073180  31.4569010  51.1129040  44.3145790
  31.2500240  49.6535180  44.6599390  22.9371270  46.4706670  47.4957880
  22.0399800  46.6946640  47.7431280  22.9624140  46.5941610  46.5469280
  23.5622840  49.2841690  48.2800400  23.5338270  49.6884640  47.4128830
  23.3987810  48.3552050  48.1172000  35.5137660  50.0668790  49.5764570
  35.9897380  50.5451680  50.2553650  36.1344820  49.9986280  48.8510070
  34.9170910  47.2581640  46.7364580  35.0433970  47.0193520  45.8181760
  34.9592290  46.4266180  47.2086660  28.7787650  50.9609640  45.3059390
  29.2932320  50.8717650  46.1081820  27.9356730  51.3069340  45.5987300
  23.2330430  51.0263510  36.5115010  23.0572910  50.1099050  36.2982810
  22.3786170  51.3850800  36.7512810  17.7720660  46.1531710  44.5280620
  17.9351700  45.6837070  43.7099990  18.2373110  45.6455270  45.1929460
  17.3950680  39.5818870  31.3549290  17.3125350  40.5249630  31.4964280
  17.0433740  39.4393780  30.4761640  19.3459640  45.5283140  46.6876430
  18.9614430  44.8876810  47.2859390  19.6571830  46.2319260  47.2571160
  17.8527930  42.2562320  32.2575220  18.7222780  42.5387120  32.5411140
  17.3618250  43.0698190  32.1424030  18.2199180  51.4689700  32.8236850
  18.5796820  52.0679040  32.1694120  18.0791520  52.0149590  33.5971880
  18.2041040  49.7344560  47.2979250  18.3132160  48.7939300  47.1574640
  17.5521600  49.9999310  46.6492980  26.1953630  48.0060450  48.6977370
  25.8750500  47.2869690  49.2423060  25.5211990  48.6815520  48.7713430
  21.3441200  51.6167400  39.9213280  22.0803680  51.0682860  40.1921850
  21.7282120  52.4823410  39.7819270  18.2286680  47.6840970  35.7954790
  17.3026460  47.9262110  35.7860200  18.6943110  48.5115230  35.6739540
  20.3499480  50.8013470  49.1098860  21.1512210  51.1225520  49.5234260
  19.8351300  50.4409050  49.8318770  29.1864110  46.9093340  49.0574270
  28.5802270  46.9324940  48.3170020  28.8818220  46.1776380  49.5941520
  30.6164480  50.6373630  47.6683680  31.5686230  50.5531650  47.6183920
  30.4692700  51.3015340  48.3417470  23.5526890  50.7351570  45.7654320
  23.0147980  51.4597630  45.4463020  23.8060850  50.2581910  44.9751660
  26.4089100  51.9702780  46.0240970  26.3347800  52.8737920  46.3313340
  25.5067940  51.6514680  45.9963040  17.8116390  49.2977370  39.3274590
  18.1419400  48.4298430  39.0953230  18.2407390  49.5035890  40.1579550
  18.3006600  50.1647960  42.0656220  17.8637590  50.3448760  42.8980370
  18.8684280  50.9222580  41.9237940  33.9368780  49.6664960  46.3533530
  33.3370770  49.7257520  45.6097450  34.0662680  48.7269940  46.4830380
  20.5859040  47.5753450  48.1268590  20.5428670  47.2046360  49.0083050
  20.7170050  48.5131020  48.2670410  35.5469230  51.1507420  44.5288950
  35.0527510  51.5476290  43.8116080  34.9382520  50.5256630  44.9226230
  20.4247070  50.5215700  45.2466370  19.8307390  50.3900400  45.9856410
  20.4170910  49.6853840  44.7808470  33.2308680  51.7930840  41.8075690
  32.7711650  52.5446650  41.4333710  32.6021140  51.0737310  41.7490490
  20.0559300  47.8874080  44.1974410  19.3293360  47.2679370  44.1300360
  20.1168450  48.2814690  43.3272490  18.3389300  51.2048470  37.4071170
  18.1711340  50.5719150  38.1053060  17.4723810  51.4107870  37.0565360
  19.9452000  49.8981700  34.8521310  19.4199620  50.2789730  34.1483270
  19.8696580  50.5232470  35.5731020  26.4672260  51.9143670  49.1761000
  27.3939570  51.6787940  49.2196960  26.4522690  52.7415670  48.6947030
  22.5444970  51.8464080  33.7270560  23.2763790  51.5623360  33.1794450
  22.8038640  51.6077360  34.6169940  33.0349820  51.1413530  49.0002040
  33.8275140  50.6462760  48.7928000  33.3282970  51.8203670  49.6077650
  21.3093350  44.1033300  22.6403120  20.4778230  43.8482010  23.0399630
  21.9174330  44.1744070  23.3761040  21.2894610  48.1373390  22.8361140
  21.5922650  47.2471130  22.6571360  22.0338200  48.6943610  22.6083390
  19.7185300  39.0635190  16.4245510  18.8302000  39.4051160  16.3225390
  20.0026490  38.8635510  15.5326340  17.6818310  41.6640840  22.3085210
  18.2534420  40.8963040  22.3088850  17.6819850  41.9629600  21.3991820
  27.5398260  50.4831690  20.1630480  26.9209700  50.9389190  19.5924920
  28.3950040  50.6383150  19.7620180  18.9243180  37.0725200  24.0954140
  18.7446020  36.1750950  24.3756900  18.5223260  37.6197070  24.7701090
  19.5429850  39.5685700  22.7036480  20.2239960  39.8324070  23.3223880
  19.2277900  38.7286570  23.0374490  22.4812470  46.8627600  26.0495170
  23.0986470  47.5378680  25.7679620  21.6205590  47.2715580  25.9582670
  17.7744810  46.0527460  14.9302020  17.3972790  46.5414560  14.1986920
  18.0317880  46.7252740  15.5608550  33.3990060  48.3267010  23.9649810
  32.7153580  48.9966120  23.9566480  33.9384350  48.5247660  23.1994670
  30.9348800  50.1711140  22.6794990  30.9475960  49.7673430  21.8117250
  30.3824020  50.9458430  22.5756420  23.8452840  46.7324980  22.0706590
  23.5481130  46.1270450  21.3914370  24.7952660  46.7702290  21.9595950
  28.0871870  48.2595860  18.6036890  28.5267780  49.0020190  18.1892280
  28.0258760  48.5022430  19.5275850  20.0775770  41.9402400  17.4074030
  19.9573370  42.6664490  16.7955300  19.7676660  41.1705310  16.9301940
  35.5137660  50.0668790  30.8021080  35.9897380  50.5451680  31.4810160
  36.1344820  49.9986280  30.0766580  17.7161140  45.1117540  23.2142670
  17.7941560  45.2466310  22.2698390  18.3302820  44.4033430  23.4070790
  18.9608770  46.8117730  19.6248850  18.5536850  46.9532320  18.7702450
  19.8521780  46.5277890  19.4220060  30.7542050  51.2464980  15.9599900
  30.5943190  50.9567920  16.8581730  30.5888760  50.4705110  15.4245130
  23.2330430  51.0263510  17.7371520  23.0572910  50.1099050  17.5239320
  22.3786170  51.3850800  17.9769320  30.4568180  48.7552540  14.5197900
  29.7633340  48.7529830  13.8600180  31.1991040  48.3311860  14.0892070
  30.0218110  50.3815250  18.5946390  30.4775060  49.6004630  18.9085010
  30.3610630  51.0922070  19.1387570  17.7720660  46.1531710  25.7537130
  17.9351700  45.6837070  24.9356500  18.2373110  45.6455270  26.4185970
  19.9063400  37.7170290  27.3373000  19.5126790  38.5645500  27.5445780
  19.2181800  37.0796660  27.5281640  17.2080450  35.6398750  21.3703080
  16.9193500  36.2101610  22.0828060  17.9526210  35.1603200  21.7334310
  17.3950680  39.5818870  12.5805800  17.3125350  40.5249630  12.7220790
  17.0433740  39.4393780  11.7018150  19.3459640  45.5283140  27.9132940
  18.9614430  44.8876810  28.5115900  19.6571830  46.2319260  28.4827670
  18.3597270  37.1203370  19.5235030  18.0744190  36.7559040  20.3613650
  18.2976130  36.3883830  18.9098170  21.8137940  45.6229310  16.3092620
  21.0400200  45.0826930  16.1491340  22.5432570  45.1035920  15.9710380
  21.8575340  45.2909690  19.9471430  22.3754010  44.4877950  19.8928320
  21.4059360  45.2288830  20.7888260  26.7444840  46.5575970  15.2198730
  27.0860540  47.3018200  14.7242050  25.9157550  46.8707090  15.5823560
  19.3419880  42.2571060  26.8597130  18.9834820  42.9224910  27.4470470
  19.0474440  41.4254610  27.2309750  33.0198520  41.6964120  14.0090420
  32.9362240  42.1278340  13.1586860  33.7392710  42.1562470  14.4417240
  34.0485770  48.5506380  16.7372550  33.4061930  47.8962000  17.0116270
  33.6616430  48.9561470  15.9613220  25.7135530  46.6389500  17.9914650
  26.4006660  47.1858710  18.3722240  24.9267950  47.1830230  18.0264260
  17.8527930  42.2562320  13.4831730  18.7222780  42.5387120  13.7667650
  17.3618250  43.0698190  13.3680540  32.4383150  47.4422840  13.2748900
  32.2120730  46.7253280  13.8673540  32.0479350  47.1935280  12.4370650
  18.2199180  51.4689700  14.0493360  18.5796820  52.0679040  13.3950630
  18.0791520  52.0149590  14.8228390  32.0199400  45.3594780  14.9363060
  31.7321100  45.8207470  15.7240940  32.8151570  44.8992550  15.2047280
  18.2041040  49.7344560  28.5235760  18.3132160  48.7939300  28.3831150
  17.5521600  49.9999310  27.8749490  24.2367800  48.8520900  14.8667030
  24.2277900  49.5850590  14.2511540  23.3166160  48.6052480  14.9593990
  19.8374440  44.0735790  15.6113790  19.2302390  44.8134690  15.6209090
  20.3123790  44.1635150  14.7851990  27.2227400  48.9149140  13.5292220
  27.3239380  48.7113130  12.5994200  26.3229140  48.6607420  13.7340000
  25.8645510  51.4335460  18.2239890  26.1187010  51.3956850  17.3019260
  24.9157990  51.3068790  18.2168140  21.8479730  44.0346940  13.3602360
  22.6143000  43.9228300  13.9227790  21.9254420  43.3384910  12.7079130
  20.5426490  41.4672010  14.0435250  20.6230080  40.5199520  14.1552650
  21.4346240  41.7978890  14.1495910  33.8723670  49.5236190  21.4752660
  33.9971090  50.3467360  21.9476470  34.7389230  49.3126920  21.1276810
  21.3441200  51.6167400  21.1469790  22.0803680  51.0682860  21.4178360
  21.7282120  52.4823410  21.0075780  18.2286680  47.6840970  17.0211300
  17.3026460  47.9262110  17.0116710  18.6943110  48.5115230  16.8996050
  20.3499480  50.8013470  30.3355370  21.1512210  51.1225520  30.7490770
  19.8351300  50.4409050  31.0575280  24.4543510  50.7897710  12.9695360
  25.2472120  51.0786540  12.5177150  23.9347860  50.3589880  12.2907840
  33.5073680  50.0167840  14.3932100  33.2215190  49.6032980  13.5786280
  33.3093230  50.9455550  14.2732620  18.0697290  43.2886930  29.2791420
  18.5736310  42.7094210  29.8507650  17.3304710  43.5727160  29.8167790
  24.9720910  46.0101120  12.8337710  24.8671550  45.3953470  13.5599090
  24.8045130  45.4867010  12.0500720  28.2123640  45.0721150  13.4379700
  27.6633740  45.5190450  14.0822440  28.8342900  44.5670400  13.9617370
  20.1020370  41.4316520  30.1741490  20.1425710  41.1330390  31.0826720
  20.9565870  41.8324130  30.0149010  22.7757660  40.1045300  12.2803160
  22.5746720  39.2412660  12.6416500  22.6049710  40.0178660  11.3424760
  23.5526890  50.7351570  26.9910830  23.0147980  51.4597630  26.6719530
  23.8060850  50.2581910  26.2008170  21.5740460  37.2045920  12.2681040
  21.8766360  37.2113350  11.3600190  22.3135050  36.8543780  12.7648700
  26.4089100  51.9702780  27.2497480  26.3347800  52.8737920  27.5569850
  25.5067940  51.6514680  27.2219550  24.7925390  36.1480540  13.2537240
  24.4447390  35.4704530  12.6739690  24.9938160  35.6870050  14.0680630
  26.9574430  51.1361290  14.8723840  27.8525220  51.4746260  14.8942600
  26.9892060  50.4140700  14.2448120  20.5970590  46.5088340  13.1010840
  21.0345460  47.0518010  13.7568420  21.0818320  45.6835290  13.1107180
  17.8116390  49.2977370  20.5531100  18.1419400  48.4298430  20.3209740
  18.2407390  49.5035890  21.3836060  22.4078310  47.6286380  18.2133070
  22.1073850  47.5051350  19.1136980  22.3015800  46.7694970  17.8048800
  18.3006600  50.1647960  23.2912730  17.8637590  50.3448760  24.1236880
  18.8684280  50.9222580  23.1494450  35.1770230  47.4082780  12.9159750
  34.3463190  47.4759430  13.3866980  35.3542060  48.2986900  12.6126610
  18.1331030  42.6768190  19.6501610  17.4779870  42.4079830  19.0061310
  18.9708980  42.5672670  19.2003590  34.6845860  44.4464630  12.5766470
  34.9594700  45.3543510  12.4485690  34.4956600  44.3827160  13.5128460
  19.1706960  43.0620760  24.1904950  19.5380000  42.9748160  25.0700970
  18.6017780  42.2987310  24.0911810  18.7222960  39.9729850  28.0963370
  17.8279010  39.9396610  28.4357080  19.2620510  40.1716640  28.8614620
  17.3469110  39.8867120  15.5926940  16.4433190  40.1497320  15.4178600
  17.8309730  40.1578290  14.8126900  19.8896320  38.9432660  13.5021320
  20.5988020  38.5215880  13.0168600  19.1736260  39.0107890  12.8704670
  19.5370480  34.9971990  12.5423970  20.2598610  35.5380930  12.8605190
  19.8095000  34.7235410  11.6665510  35.6639560  36.3333330  12.5839370
  36.5888870  36.2014510  12.3757660  35.6415350  36.4126150  13.5375820
  32.6796470  51.1435540  19.2034470  33.2755540  50.8220110  18.5268890
  32.9374620  50.6707360  19.9947740  20.5859040  47.5753450  29.3525100
  20.5428670  47.2046360  30.2339560  20.7170050  48.5131020  29.4926920
  35.5469230  51.1507420  25.7545460  35.0527510  51.5476290  25.0372590
  34.9382520  50.5256630  26.1482740  20.4247070  50.5215700  26.4722880
  19.8307390  50.3900400  27.2112920  20.4170910  49.6853840  26.0064980
  33.2308680  51.7930840  23.0332200  32.7711650  52.5446650  22.6590220
  32.6021140  51.0737310  22.9747000  20.0559300  47.8874080  25.4230920
  19.3293360  47.2679370  25.3556870  20.1168450  48.2814690  24.5529000
  23.6604400  50.1019080  22.2080330  24.1769420  49.4906440  21.6828590
  24.3101780  50.6047860  22.6991340  26.3999900  50.9927570  23.0349310
  26.6877710  50.7381870  22.1582320  26.9123120  50.4404930  23.6254880
  18.3389300  51.2048470  18.6327680  18.1711340  50.5719150  19.3309570
  17.4723810  51.4107870  18.2821870  18.9617320  35.0365250  16.1359540
  19.7196680  35.1494130  15.5623570  18.4994490  35.8734450  16.0902970
  19.9452000  49.8981700  16.0777820  19.4199620  50.2789730  15.3739780
  19.8696580  50.5232470  16.7987530  21.3342470  35.5629300  14.6761510
  21.8635230  34.7759100  14.5469460  21.9670790  36.2420490  14.9097040
  34.7017320  51.4569240  17.3991760  34.8769510  50.7706980  16.7552680
  34.0038890  51.9816290  17.0068430  22.5444970  51.8464080  14.9527070
  23.2763790  51.5623360  14.4050960  22.8038640  51.6077360  15.8426450
  21.7059760  47.9628810  14.9573400  21.0768640  48.4313910  15.5059230
  21.8207590  47.1178030  15.3919590  27.2927520  43.7913490   2.9883870
  26.5169620  43.3113930   3.2782440  27.9440450  43.1119140   2.8140030
  21.3093350  44.1033300   3.8659630  20.4778230  43.8482010   4.2656140
  21.9174330  44.1744070   4.6017550  31.3134950  48.1973680   1.7683000
  30.8516480  47.4260920   2.0970170  32.1260500  48.2239750   2.2735450
  21.2894610  48.1373390   4.0617650  21.5922650  47.2471130   3.8827870
  22.0338200  48.6943610   3.8339900  17.6818310  41.6640840   3.5341720
  18.2534420  40.8963040   3.5345360  17.6819850  41.9629600   2.6248330
  26.7336510  46.4670680   2.9954030  26.6644790  45.5260620   2.8343160
  27.4956370  46.5572090   3.5676600  18.9243180  37.0725200   5.3210650
  18.7446020  36.1750950   5.6013410  18.5223260  37.6197070   5.9957600
  27.7641680  39.2741060   3.2222960  28.1406500  38.4012940   3.1096630
  27.6661190  39.6099760   2.3313400  19.5429850  39.5685700   3.9292990
  20.2239960  39.8324070   4.5480390  19.2277900  38.7286570   4.2631000
  23.7354420  40.6153060   3.0165580  24.2432640  41.1134030   3.6570600
  24.2667660  39.8388260   2.8404940  35.8365350  38.7858250   6.7194930
  35.1317520  39.1739960   6.2010040  36.1023270  39.4808540   7.3215860
  22.0190520  35.2551620   7.2829000  22.0208960  35.7724010   6.4774900
  21.1894830  34.7781800   7.2598930  23.2693370  44.8946800   5.4602500
  22.9362750  45.5215720   6.1023570  23.4460050  45.4208680   4.6804170
  31.7827280  38.7091880   2.9278840  31.0782850  38.9976770   3.5081950
  32.1439440  39.5191990   2.5678400  21.7005850  36.9661580   5.2899450
  22.0422660  37.8103630   4.9953320  20.7621660  37.1145320   5.4064790
  22.4812470  46.8627600   7.2751680  23.0986470  47.5378680   6.9936130
  21.6205590  47.2715580   7.1839180  33.3990060  48.3267010   5.1906320
  32.7153580  48.9966120   5.1822990  33.9384350  48.5247660   4.4251180
  34.8514200  38.1546670   3.3188050  33.9039110  38.1885650   3.4503480
  35.1764190  38.9685620   3.7037410  30.9348800  50.1711140   3.9051500
  30.9475960  49.7673430   3.0373760  30.3824020  50.9458430   3.8012930
  30.3334240  45.0740980   5.2334110  30.7503030  44.8601090   4.3987570
  31.0574060  45.3313770   5.8042730  34.2796340  43.4728200   5.3250350
  33.4514970  43.5421290   4.8500480  34.8746820  44.0582510   4.8566180
  31.2438350  40.2597520   6.2705220  30.8309530  41.0851230   6.5245210
  30.5114300  39.6742560   6.0781580  23.8452840  46.7324980   3.2963100
  23.5481130  46.1270450   2.6170880  24.7952660  46.7702290   3.1852460
  22.0899760  39.8200630   4.9122930  22.6414350  39.9295970   4.1376180
  22.6043270  40.1938230   5.6278160  31.9338450  50.3056850   6.9586200
  31.4569010  51.1129040   6.7658810  31.2500240  49.6535180   7.1112410
  22.9371270  46.4706670   9.9470900  22.0399800  46.6946640  10.1944300
  22.9624140  46.5941610   8.9982300  21.7642490  43.3419990   8.5228270
  21.6250260  44.2142790   8.8915670  20.8823850  42.9992800   8.3776210
  23.5622840  49.2841690  10.7313420  23.5338270  49.6884640   9.8641850
  23.3987810  48.3552050  10.5685020  35.5137660  50.0668790  12.0277590
  35.9897380  50.5451680  12.7066670  36.1344820  49.9986280  11.3023090
  17.7161140  45.1117540   4.4399180  17.7941560  45.2466310   3.4954900
  18.3302820  44.4033430   4.6327300  34.9170910  47.2581640   9.1877600
  35.0433970  47.0193520   8.2694780  34.9592290  46.4266180   9.6599680
  28.7787650  50.9609640   7.7572410  29.2932320  50.8717650   8.5594840
  27.9356730  51.3069340   8.0500320  34.7694920  39.3114100  10.1527340
  34.1539190  39.8193770   9.6242800  34.4491340  38.4112430  10.0953280
  17.7720660  46.1531710   6.9793640  17.9351700  45.6837070   6.1613010
  18.2373110  45.6455270   7.6442480  22.5439430  35.2837470   2.0154210
  22.1007580  36.0647010   1.6838730  23.1024420  35.6067360   2.7225150
  26.8309240  38.1505990   7.6189530  26.3688610  38.3589010   8.4309470
  26.4287350  37.3365340   7.3160200  31.8313750  39.3714940   8.7486190
  30.9807340  39.0720690   9.0695260  31.6715540  39.6156950   7.8370010
  28.9263460  40.8716690  10.8484980  29.2516870  40.0380440  10.5087210
  29.7143790  41.3945210  10.9963310  24.5815330  35.8284800   3.8743810
  24.8787660  36.7347630   3.7935830  25.1300890  35.3403580   3.2603380
  24.7752860  41.3056620  10.4095730  24.6796460  40.3651350  10.2596130
  25.6184840  41.5271690  10.0143800  19.9063400  37.7170290   8.5629510
  19.5126790  38.5645500   8.7702290  19.2181800  37.0796660   8.7538150
  26.4808450  37.8005260  11.6326250  25.7906770  37.6077460  12.2672340
  27.2240750  38.0839900  12.1650550  17.2080450  35.6398750   2.5959590
  16.9193500  36.2101610   3.3084570  17.9526210  35.1603200   2.9590820
  28.7571420  41.6403700   4.4680170  28.0252540  42.1490510   4.8170270
  28.3595760  40.8233680   4.1668950  25.1948810  38.3157900   2.8732660
  25.1984870  37.8747850   2.0237200  26.0899930  38.6375230   2.9804480
  21.0451190  38.1984390   1.8326870  20.7051240  38.6759620   2.5893920
  20.2828510  37.7449510   1.4727970  29.2197330  37.0937380   3.8803110
  29.2370070  37.5446030   4.7244960  28.9712910  36.1943020   4.0936550
  32.6468080  34.5069560   9.7189490  32.9713850  33.7759220  10.2447470
  32.6824590  34.1883200   8.8170480  19.3459640  45.5283140   9.1389450
  18.9614430  44.8876810   9.7372410  19.6571830  46.2319260   9.7084180
  25.4956780  42.3759680   4.6198070  25.8626910  41.9018250   5.3659410
  25.3061840  43.2501250   4.9606410  23.2856150  41.4168320   6.9382280
  22.9813220  42.2960300   7.1632640  24.2402610  41.4768110   6.9739720
  32.5725920  44.6194670   3.3275520  33.2925040  45.1149960   2.9371630
  32.3707740  43.9412560   2.6829390  27.9544720  44.6903730   9.2144520
  27.8882030  43.7699400   8.9602110  27.3249860  44.7879170   9.9289160
  19.3419880  42.2571060   8.0853640  18.9834820  42.9224910   8.6726980
  19.0474440  41.4254610   8.4566260  22.5433000  42.7155300  10.9693190
  22.2433140  42.8612480  10.0721010  23.3144240  42.1560590  10.8766580
  27.8861450  47.5124300   8.9648320  27.9005990  46.5805260   8.7467230
  27.1786550  47.5984060   9.6038090  34.0972660  44.1531640   8.3116900
  33.3720850  44.7460420   8.1146290  34.6248120  44.1455180   7.5130270
  27.3195350  49.1541870   6.0588820  27.9637570  49.3601250   6.7362240
  27.6824790  48.3930270   5.6059670  28.5927430  47.1574220   4.7766270
  29.2349660  46.4567380   4.8898440  29.1176780  47.9372660   4.5963160
  30.3665050  47.9569120   7.9802330  30.7021290  48.5435810   8.6580250
  29.4465390  47.8261830   8.2100120  17.9168450  35.7464300   8.7625740
  17.2026970  35.9461220   9.3678350  18.3363490  34.9703870   9.1340540
  18.2041040  49.7344560   9.7492270  18.3132160  48.7939300   9.6087660
  17.5521600  49.9999310   9.1006000  26.1953630  48.0060450  11.1490390
  25.8750500  47.2869690  11.6936080  25.5211990  48.6815520  11.2226450
  29.4107230  38.2386610   6.5127190  29.7788050  37.4181820   6.8406760
  28.5505430  38.2988500   6.9282840  26.3709220  40.8926200   6.7365160
  26.8694470  41.3672020   7.4017010  26.5132170  39.9689720   6.9435190
  33.5776080  37.1094160   7.5793550  33.0749680  37.8499560   7.9187360
  34.3932740  37.4978160   7.2630340  33.8723670  49.5236190   2.7009170
  33.9971090  50.3467360   3.1732980  34.7389230  49.3126920   2.3533320
  21.3441200  51.6167400   2.3726300  22.0803680  51.0682860   2.6434870
  21.7282120  52.4823410   2.2332290  20.3499480  50.8013470  11.5611880
  21.1512210  51.1225520  11.9747280  19.8351300  50.4409050  12.2831790
  29.1864110  46.9093340  11.5087290  28.5802270  46.9324940  10.7683040
  28.8818220  46.1776380  12.0454540  30.6164480  50.6373630  10.1196700
  31.5686230  50.5531650  10.0696940  30.4692700  51.3015340  10.7930490
  18.0697290  43.2886930  10.5047930  18.5736310  42.7094210  11.0764160
  17.3304710  43.5727160  11.0424300  25.1235230  44.6957920  10.0383450
  24.3580900  45.2642920   9.9538120  25.3051190  44.4034130   9.1451680
  32.2658580  46.4263250  10.5958470  33.0068050  46.7639010  10.0925930
  31.5031260  46.5955310  10.0428240  20.1020370  41.4316520  11.3998000
  20.1425710  41.1330390  12.3083230  20.9565870  41.8324130  11.2405520
  22.0426180  40.0108620   9.3672490  21.5122640  39.5199570   8.7395830
  22.7114250  40.4392820   8.8330420  30.9404240  44.4778080   9.1313680
  31.3545260  44.6323160   9.9804100  30.0055240  44.6033300   9.2939460
  31.4126410  41.8174240  11.1352830  31.9947180  41.0626560  11.0473310
  31.5888180  42.3481680  10.3584310  22.5298480  36.9770990   9.4469780
  22.4355350  36.3591740   8.7220650  21.9495870  37.7037280   9.2199690
  25.2959920  35.5344230   6.4797170  24.8477220  35.5568490   5.6342720
  24.6625120  35.1363250   7.0767470  25.7019470  44.4298560   7.1009610
  26.1207580  45.2731290   6.9285850  24.7828100  44.5670600   6.8716390
  28.0383370  42.1614740   8.4847450  28.1579580  41.5655880   9.2242290
  28.8977370  42.1984430   8.0648750  30.3771270  42.7151930   7.0609960
  29.8506490  43.2394550   6.4575100  30.7202610  43.3479320   7.6919690
  23.5526890  50.7351570   8.2167340  23.0147980  51.4597630   7.8976040
  23.8060850  50.2581910   7.4264680  24.8052140  38.7036090   9.7423270
  25.3951830  38.3951940  10.4301090  23.9872380  38.2315840   9.8983170
  29.6245570  38.3201900   9.9756290  28.9361090  37.6583440   9.9106280
  30.3451590  37.8740170  10.4204750  26.4089100  51.9702780   8.4753990
  26.3347800  52.8737920   8.7826360  25.5067940  51.6514680   8.4476060
  17.8116390  49.2977370   1.7787610  18.1419400  48.4298430   1.5466250
  18.2407390  49.5035890   2.6092570  18.3006600  50.1647960   4.5169240
  17.8637590  50.3448760   5.3493390  18.8684280  50.9222580   4.3750960
  33.9368780  49.6664960   8.8046550  33.3370770  49.7257520   8.0610470
  34.0662680  48.7269940   8.9343400  32.6220420  46.3916940   6.9022710
  31.8080260  46.8214100   7.1648500  33.0294620  47.0035350   6.2891760
  19.1706960  43.0620760   5.4161460  19.5380000  42.9748160   6.2957480
  18.6017780  42.2987310   5.3168320  33.9710820  41.5305140   8.4291930
  33.7396910  41.3017890   7.5289880  34.2315370  42.4504690   8.3836820
  18.7222960  39.9729850   9.3219880  17.8279010  39.9396610   9.6613590
  19.2620510  40.1716640  10.0871130  33.8562160  40.6091110   2.0959650
  34.3799640  40.1153760   1.4649820  34.4421580  40.7441470   2.8407220
  34.0351880  40.6930980   5.6179200  33.0854590  40.6594520   5.7324190
  34.2164890  41.6031090   5.3828970  19.2262670  34.2478180   3.6703100
  19.8738860  33.6975560   3.2298260  19.6464510  34.5021330   4.4918910
  33.1215010  34.4419540   7.0272740  33.7587230  35.0553680   7.3931930
  33.2689900  34.4780200   6.0821970  18.9794670  34.4033850   6.4128420
  18.6309490  34.8597670   7.1786600  18.6482370  33.5090980   6.4950850
  20.5859040  47.5753450  10.5781610  20.5428670  47.2046360  11.4596070
  20.7170050  48.5131020  10.7183430  24.2865070  49.1313040   6.1791330
  24.0456430  49.3987600   5.2921850  25.2267710  49.3018770   6.2342190
  26.4919490  35.5945730   9.9347840  26.4308380  36.1867560  10.6843250
  27.4319870  35.4871690   9.7898100  29.1294050  35.2515790   9.5740130
  29.7434460  35.5695080   8.9121210  29.6743610  34.7664380  10.1935990
  35.5469230  51.1507420   6.9801970  35.0527510  51.5476290   6.2629100
  34.9382520  50.5256630   7.3739250  19.6515310  33.9310050   9.6879190
  20.1998300  33.7498100   8.9245300  19.7170620  33.1404160  10.2235500
  20.4247070  50.5215700   7.6979390  19.8307390  50.3900400   8.4369430
  20.4170910  49.6853840   7.2321490  29.8702090  33.8147930   5.9009420
  28.9961930  34.1483040   5.6982350  29.7612840  33.3421110   6.7261290
  30.7774070  36.0218800   7.2851140  30.4487430  35.2070560   6.9052870
  31.7256370  35.9788610   7.1616830  33.2308680  51.7930840   4.2588710
  32.7711650  52.5446650   3.8846730  32.6021140  51.0737310   4.2003510
  20.0559300  47.8874080   6.6487430  19.3293360  47.2679370   6.5813380
  20.1168450  48.2814690   5.7785510  23.6604400  50.1019080   3.4336840
  24.1769420  49.4906440   2.9085100  24.3101780  50.6047860   3.9247850
  26.3999900  50.9927570   4.2605820  26.6877710  50.7381870   3.3838830
  26.9123120  50.4404930   4.8511390  27.6176910  34.7317770   4.8402330
  26.8348700  35.2063270   5.1199090  27.3239840  33.8272600   4.7315510
  32.1697980  35.4340870   2.8851420  32.6106070  35.3785970   2.0373020
  31.9005570  36.3498880   2.9561600  26.4672260  51.9143670  11.6274020
  27.3939570  51.6787940  11.6709980  26.4522690  52.7415670  11.1460050
  23.6535870  34.5788420  11.3915900  23.3720140  35.0822020  10.6276720
  24.0355570  33.7810170  11.0258030  33.0349820  51.1413530  11.4515060
  33.8275140  50.6462760  11.2441020  33.3282970  51.8203670  12.0590670
  29.1609480  23.2390980  57.4305070  29.0803530  22.3245590  57.1596780
  28.7473900  23.7358050  56.7244780  27.2927520  25.0170000  59.3114340
  26.5169620  24.5370440  59.6012910  27.9440450  24.3375650  59.1370500
  31.3134950  29.4230190  58.0913470  30.8516480  28.6517430  58.4200640
  32.1260500  29.4496260  58.5965920  19.7185300  20.2891700  53.9732490
  18.8302000  20.6307670  53.8712370  20.0026490  20.0892020  53.0813320
  17.6818310  22.8897350  59.8572190  18.2534420  22.1219550  59.8575830
  17.6819850  23.1886110  58.9478800  27.5398260  31.7088200  57.7117460
  26.9209700  32.1645700  57.1411900  28.3950040  31.8639660  57.3107160
  26.7336510  27.6927190  59.3184500  26.6644790  26.7517130  59.1573630
  27.4956370  27.7828600  59.8907070  27.7641680  20.4997570  59.5453430
  28.1406500  19.6269450  59.4327100  27.6661190  20.8356270  58.6543870
  21.8946690  18.8723200  55.0070870  22.0013440  19.7726930  55.3139630
  20.9839050  18.8241170  54.7165520  31.5465800  17.9948010  56.4781770
  32.3675420  17.5044580  56.5207250  31.5799880  18.5845670  57.2313610
  23.7354420  21.8409570  59.3396050  24.2432640  22.3390540  59.9801070
  24.2667660  21.0644770  59.1635410  28.4061610  26.5927440  55.1049370
  27.7878880  27.0576890  54.5412090  28.9184860  27.2854920  55.5218880
  31.7827280  19.9348390  59.2509310  31.0782850  20.2233280  59.8312420
  32.1439440  20.7448500  58.8908870  17.7744810  27.2783970  52.4789000
  17.3972790  27.7671070  51.7473900  18.0317880  27.9509250  53.1095530
  34.8514200  19.3803180  59.6418520  33.9039110  19.4142160  59.7733950
  35.1764190  20.1942130  60.0267880  25.3833740  15.6800360  57.9374510
  25.6908720  15.1247250  57.2210010  24.4534440  15.8144820  57.7547500
  30.9348800  31.3967650  60.2281970  30.9475960  30.9929940  59.3604230
  30.3824020  32.1714940  60.1243400  32.2294220  28.1183870  55.3172140
  32.1190550  27.1758200  55.4421560  32.2262470  28.4799510  56.2034900
  27.7714500  23.7449190  54.6734630  26.8443780  23.6786570  54.9023100
  27.9239320  24.6829320  54.5589870  27.7583580  20.0166190  51.6701790
  26.8187250  20.1780150  51.7554250  28.0766840  20.7351870  51.1237780
  31.8011790  25.3069490  55.1769880  31.1824210  24.9689040  54.5296180
  31.7836240  24.6629250  55.8849070  23.3771140  24.2713930  57.4554360
  22.9728140  23.5591180  56.9600260  23.4634260  23.9267170  58.3442400
  23.8452840  27.9581490  59.6193570  23.5481130  27.3526960  58.9401350
  24.7952660  27.9958800  59.5082930  29.9776490  24.5456300  52.1842630
  30.4169770  23.7078730  52.0380450  30.6904910  25.1785700  52.2706770
  28.0871870  29.4852370  56.1523870  28.5267780  30.2276700  55.7379260
  28.0258760  29.7278940  57.0762830  33.5593630  15.7999110  50.4983670
  33.2466290  15.8925940  51.3982740  34.3206100  16.3780140  50.4481100
  20.0775770  23.1658910  54.9561010  19.9573370  23.8921000  54.3442280
  19.7676660  22.3961820  54.4788920  18.9608770  28.0374240  57.1735830
  18.5536850  28.1788830  56.3189430  19.8521780  27.7534400  56.9707040
  30.7542050  32.4721490  53.5086880  30.5943190  32.1824430  54.4068710
  30.5888760  31.6961620  52.9732110  23.2330430  32.2520020  55.2858500
  23.0572910  31.3355560  55.0726300  22.3786170  32.6107310  55.5256300
  30.4568180  29.9809050  52.0684880  29.7633340  29.9786340  51.4087160
  31.1991040  29.5568370  51.6379050  30.0218110  31.6071760  56.1433370
  30.4775060  30.8261140  56.4571990  30.3610630  32.3178580  56.6874550
  22.5439430  16.5093980  58.3384680  22.1007580  17.2903520  58.0069200
  23.1024420  16.8323870  59.0455620  25.6598250  16.1304680  53.2190510
  25.0352430  16.1264550  53.9443820  25.5728370  15.2635640  52.8226480
  24.5815330  17.0541310  60.1974280  24.8787660  17.9604140  60.1166300
  25.1300890  16.5660090  59.5833850  22.3353650  21.6327550  56.0665930
  22.1094570  21.4164720  56.9712550  21.5546180  22.0656010  55.7211900
  29.5651410  21.6390920  54.6656580  28.9660300  22.3626720  54.4820200
  30.1131020  21.5767700  53.8833030  28.1716280  20.2754460  56.6959860
  28.5645850  20.5926660  55.8828550  28.5333130  19.3966340  56.8104380
  17.2080450  16.8655260  58.9190060  16.9193500  17.4358120  59.6315040
  17.9526210  16.3859710  59.2821290  17.3950680  20.8075380  50.1292780
  17.3125350  21.7506140  50.2707770  17.0433740  20.6650290  49.2505130
  25.1948810  19.5414410  59.1963130  25.1984870  19.1004360  58.3467670
  26.0899930  19.8631740  59.3034950  21.0451190  19.4240900  58.1557340
  20.7051240  19.9016130  58.9124390  20.2828510  18.9706020  57.7958440
  25.2568960  20.5426490  52.1869890  25.3781780  20.5012970  53.1355710
  24.8717470  21.4050640  52.0316620  24.2690460  22.8527630  51.5853190
  23.7007360  22.4045880  50.9589100  24.9779460  23.2120410  51.0518340
  18.3597270  18.3459880  57.0722010  18.0744190  17.9815550  57.9100630
  18.2976130  17.6140340  56.4585150  21.8137940  26.8485820  53.8579600
  21.0400200  26.3083440  53.6978320  22.5432570  26.3292430  53.5197360
  32.5725920  25.8451180  59.6505990  33.2925040  26.3406470  59.2602100
  32.3707740  25.1669070  59.0059860  28.0335860  17.2389140  53.7935380
  27.2200470  16.7402310  53.7180690  27.8397810  18.0787390  53.3771730
  30.7484250  21.6108790  52.0897540  31.6363870  21.9226020  51.9148880
  30.7189340  20.7381040  51.6978120  21.8575340  26.5166200  57.4958410
  22.3754010  25.7134460  57.4415300  21.4059360  26.4545340  58.3375240
  26.7444840  27.7832480  52.7685710  27.0860540  28.5274710  52.2729030
  25.9157550  28.0963600  53.1310540  33.0198520  22.9220630  51.5577400
  32.9362240  23.3534850  50.7073840  33.7392710  23.3818980  51.9904220
  34.0485770  29.7762890  54.2859530  33.4061930  29.1218510  54.5603250
  33.6616430  30.1817980  53.5100200  29.6272250  27.1048320  58.1331220
  29.9796070  26.5076450  57.4732590  28.7434580  26.7792550  58.3039470
  25.7135530  27.8646010  55.5401630  26.4006660  28.4115220  55.9209220
  24.9267950  28.4086740  55.5751240  17.8527930  23.4818830  51.0318710
  18.7222780  23.7643630  51.3154630  17.3618250  24.2954700  50.9167520
  25.0162740  24.8692040  55.1526990  25.4725520  25.6797290  55.3787180
  24.6650950  24.5515180  55.9845480  20.9174520  15.2129690  55.6249510
  20.7889150  15.2047590  56.5734430  20.0936540  15.5512780  55.2740520
  32.4383150  28.6679350  50.8235880  32.2120730  27.9509790  51.4160520
  32.0479350  28.4191790  49.9857630  18.2199180  32.6946210  51.5980340
  18.5796820  33.2935550  50.9437610  18.0791520  33.2406100  52.3715370
  32.0199400  26.5851290  52.4850040  31.7321100  27.0463980  53.2727920
  32.8151570  26.1249060  52.7534260  24.2367800  30.0777410  52.4154010
  24.2277900  30.8107100  51.7998520  23.3166160  29.8308990  52.5080970
  19.8374440  25.2992300  53.1600770  19.2302390  26.0391200  53.1696070
  20.3123790  25.3891660  52.3338970  32.7769260  18.4200060  53.6445220
  32.1482420  18.5245730  52.9303450  32.2821180  18.6396840  54.4339100
  27.2227400  30.1405650  51.0779200  27.3239380  29.9369640  50.1481180
  26.3229140  29.8863930  51.2826980  24.7453290  20.6986010  55.0603100
  24.0369440  21.1672350  55.5016710  25.0297770  20.0408020  55.6948290
  28.7768720  17.4236670  56.4998890  28.6536500  17.4422800  55.5508400
  29.7253280  17.4715610  56.6197290  25.8645510  32.6591970  55.7726870
  26.1187010  32.6213360  54.8506240  24.9157990  32.5325300  55.7655120
  22.9488310  19.0071090  52.4353810  23.7978840  19.4441240  52.3694000
  22.5819580  19.3191350  53.2625870  31.8698090  23.5783850  57.3485380
  30.9288230  23.5934080  57.5233070  32.1842160  22.7919810  57.7945680
  21.8479730  25.2603450  50.9089340  22.6143000  25.1484810  51.4714770
  21.9254420  24.5641420  50.2566110  20.5426490  22.6928520  51.5922230
  20.6230080  21.7456030  51.7039630  21.4346240  23.0235400  51.6982890
  33.8723670  30.7492700  59.0239640  33.9971090  31.5723870  59.4963450
  34.7389230  30.5383430  58.6763790  21.3441200  32.8423910  58.6956770
  22.0803680  32.2939370  58.9665340  21.7282120  33.7079920  58.5562760
  18.2286680  28.9097480  54.5698280  17.3026460  29.1518620  54.5603690
  18.6943110  29.7371740  54.4483030  24.4543510  32.0154220  50.5182340
  25.2472120  32.3043050  50.0664130  23.9347860  31.5846390  49.8394820
  33.5073680  31.2424350  51.9419080  33.2215190  30.8289490  51.1273260
  33.3093230  32.1712060  51.8219600  28.2123640  26.2977660  50.9866680
  27.6633740  26.7446960  51.6309420  28.8342900  25.7926910  51.5104350
  23.8798760  25.2568580  52.8831980  24.3015180  25.0908450  53.7263370
  24.0049600  24.4468810  52.3887120  22.7757660  21.3301810  49.8290140
  22.5746720  20.4669170  50.1903480  22.6049710  21.2435170  48.8911740
  30.2545970  16.1410040  52.3577020  30.5348260  15.2977940  52.7136440
  29.4811700  16.3733150  52.8715770  21.5740460  18.4302430  49.8168020
  21.8766360  18.4369860  48.9087170  22.3135050  18.0800290  50.3135680
  24.7925390  17.3737050  50.8024220  24.4447390  16.6961040  50.2226670
  24.9938160  16.9126560  51.6167610  26.9574430  32.3617800  52.4210820
  27.8525220  32.7002770  52.4429580  26.9892060  31.6397210  51.7935100
  20.5970590  27.7344850  50.6497820  21.0345460  28.2774520  51.3055400
  21.0818320  26.9091800  50.6594160  17.8116390  30.5233880  58.1018080
  18.1419400  29.6554940  57.8696720  18.2407390  30.7292400  58.9323040
  22.4078310  28.8542890  55.7620050  22.1073850  28.7307860  56.6623960
  22.3015800  27.9951480  55.3535780  35.1770230  28.6339290  50.4646730
  34.3463190  28.7015940  50.9353960  35.3542060  29.5243410  50.1613590
  34.6326690  25.3786770  52.9680930  35.3945600  25.9483420  53.0740620
  34.6481060  24.8113970  53.7389240  18.1331030  23.9024700  57.1988590
  17.4779870  23.6336340  56.5548290  18.9708980  23.7929180  56.7490570
  35.6386660  26.2336870  57.8122860  36.0095490  25.4504190  57.4058830
  36.2788590  26.9225970  57.6340160  34.6845860  25.6721140  50.1253450
  34.9594700  26.5800020  49.9972670  34.4956600  25.6083670  51.0615440
  31.0821470  18.6965990  51.4207080  31.5006350  18.5096970  50.5803740
  30.7757530  17.8445040  51.7310010  34.5811200  23.6090130  55.1182880
  34.2054800  22.8418060  54.6864170  33.8514320  23.9912830  55.6057810
  17.3469110  21.1123630  53.1413920  16.4433190  21.3753830  52.9665580
  17.8309730  21.3834800  52.3613880  33.8562160  21.8347620  58.4190120
  34.3799640  21.3410270  57.7880290  34.4421580  21.9697980  59.1637690
  19.8896320  20.1689170  51.0508300  20.5988020  19.7472390  50.5655580
  19.1736260  20.2364400  50.4191650  19.5370480  16.2228500  50.0910950
  20.2598610  16.7637440  50.4092170  19.8095000  15.9491920  49.2152490
  33.3462130  21.0920970  54.3582530  33.8421250  20.8591840  55.1431410
  33.1478200  20.2532810  53.9420170  34.7749290  19.7281920  56.8920210
  34.6648570  19.5737960  57.8302480  35.5356880  19.2002860  56.6495620
  35.6639560  17.5589840  50.1326350  36.5888870  17.4271020  49.9244640
  35.6415350  17.6382660  51.0862800  35.7378050  18.3300500  52.7583060
  34.9429550  18.2645620  53.2875970  35.9421330  19.2651140  52.7468410
  32.6796470  32.3692050  56.7521450  33.2755540  32.0476620  56.0755870
  32.9374620  31.8963870  57.5434720  23.6604400  31.3275590  59.7567310
  24.1769420  30.7162950  59.2315570  24.3101780  31.8304370  60.2478320
  32.1697980  16.6597380  59.2081890  32.6106070  16.6042480  58.3603490
  31.9005570  17.5755390  59.2792070  34.0336550  16.2912620  57.2190710
  33.9724950  15.3473840  57.0721730  34.8128580  16.3992710  57.7644170
  18.3389300  32.4304980  56.1814660  18.1711340  31.7975660  56.8796550
  17.4723810  32.6364380  55.8308850  18.9617320  16.2621760  53.6846520
  19.7196680  16.3750640  53.1110550  18.4994490  17.0990960  53.6389950
  25.5031130  18.3761030  56.6748830  24.6905640  18.0017920  56.3344710
  26.0072770  17.6206110  56.9770020  30.0056110  15.0403480  57.9131900
  30.6085480  15.6123690  58.3880420  29.2649100  15.6042920  57.6905800
  33.1490710  15.4425040  53.1872180  33.3441340  16.3408490  53.4539610
  32.3620580  15.2112120  53.6805130  19.9452000  31.1238210  53.6264800
  19.4199620  31.5046240  52.9226760  19.8696580  31.7488980  54.3474510
  21.3342470  16.7885810  52.2248490  21.8635230  16.0015610  52.0956440
  21.9670790  17.4677000  52.4584020  23.5280310  16.5260950  55.2793880
  22.8983050  15.8248260  55.4464010  22.9885450  17.2865080  55.0627040
  34.7017320  32.6825750  54.9478740  34.8769510  31.9963490  54.3039660
  34.0038890  33.2072800  54.5555410  22.5444970  33.0720590  52.5014050
  23.2763790  32.7879870  51.9537940  22.8038640  32.8333870  53.3913430
  21.7059760  29.1885320  52.5060380  21.0768640  29.6570420  53.0546210
  21.8207590  28.3434540  52.9406570  35.8365350  20.0114760  44.2681910
  35.1317520  20.3996470  43.7497020  36.1023270  20.7065050  44.8702840
  31.2438350  21.4854030  43.8192200  30.8309530  22.3107740  44.0732190
  30.5114300  20.8999070  43.6268560  35.5137660  31.2925300  49.5764570
  35.9897380  31.7708190  50.2553650  36.1344820  31.2242790  48.8510070
  34.7694920  20.5370610  47.7014320  34.1539190  21.0450280  47.1729780
  34.4491340  19.6368940  47.6440260  31.8313750  20.5971450  46.2973170
  30.9807340  20.2977200  46.6182240  31.6715540  20.8413460  45.3856990
  26.4808450  19.0261770  49.1813230  25.7906770  18.8333970  49.8159320
  27.2240750  19.3096410  49.7137530  17.2080450  16.8655260  40.1446570
  16.9193500  17.4358120  40.8571550  17.9526210  16.3859710  40.5077800
  17.3950680  20.8075380  31.3549290  17.3125350  21.7506140  31.4964280
  17.0433740  20.6650290  30.4761640  32.6468080  15.7326070  47.2676470
  32.9713850  15.0015730  47.7934450  32.6824590  15.4139710  46.3657460
  18.3597270  18.3459880  38.2978520  18.0744190  17.9815550  39.1357140
  18.2976130  17.6140340  37.6841660  20.9174520  15.2129690  36.8506020
  20.7889150  15.2047590  37.7990940  20.0936540  15.5512780  36.4997030
  29.4107230  19.4643120  44.0614170  29.7788050  18.6438330  44.3893740
  28.5505430  19.5245010  44.4769820  33.5776080  18.3350670  45.1280530
  33.0749680  19.0756070  45.4674340  34.3932740  18.7234670  44.8117320
  29.1864110  28.1349850  49.0574270  28.5802270  28.1581450  48.3170020
  28.8818220  27.4032890  49.5941520  32.2658580  27.6519760  48.1445450
  33.0068050  27.9895520  47.6412910  31.5031260  27.8211820  47.5915220
  30.9404240  25.7034590  46.6800660  31.3545260  25.8579670  47.5291080
  30.0055240  25.8289810  46.8426440  31.4126410  23.0430750  48.6839810
  31.9947180  22.2883070  48.5960290  31.5888180  23.5738190  47.9071290
  21.5740460  18.4302430  31.0424530  21.8766360  18.4369860  30.1343680
  22.3135050  18.0800290  31.5392190  33.9710820  22.7561650  45.9778910
  33.7396910  22.5274400  45.0776860  34.2315370  23.6761200  45.9323800
  32.4098890  17.9818080  48.7558610  33.2869070  17.9901480  49.1392610
  32.4219730  17.2448920  48.1450960  17.3469110  21.1123630  34.3670430
  16.4433190  21.3753830  34.1922090  17.8309730  21.3834800  33.5870390
  19.8896320  20.1689170  32.2764810  20.5988020  19.7472390  31.7912090
  19.1736260  20.2364400  31.6448160  19.5370480  16.2228500  31.3167460
  20.2598610  16.7637440  31.6348680  19.8095000  15.9491920  30.4409000
  19.2262670  15.4734690  41.2190080  19.8738860  14.9232070  40.7785240
  19.6464510  15.7277840  42.0405890  33.1215010  15.6676050  44.5759720
  33.7587230  16.2810190  44.9418910  33.2689900  15.7036710  43.6308950
  26.4919490  16.8202240  47.4834820  26.4308380  17.4124070  48.2330230
  27.4319870  16.7128200  47.3385080  29.1294050  16.4772300  47.1227110
  29.7434460  16.7951590  46.4608190  29.6743610  15.9920890  47.7422970
  19.6515310  15.1566560  47.2366170  20.1998300  14.9754610  46.4732280
  19.7170620  14.3660670  47.7722480  30.7774070  17.2475310  44.8338120
  30.4487430  16.4327070  44.4539850  31.7256370  17.2045120  44.7103810
  32.1697980  16.6597380  40.4338400  32.6106070  16.6042480  39.5860000
  31.9005570  17.5755390  40.5048580  18.9617320  16.2621760  34.9103030
  19.7196680  16.3750640  34.3367060  18.4994490  17.0990960  34.8646460
  23.6535870  15.8044930  48.9402880  23.3720140  16.3078530  48.1763700
  24.0355570  15.0066680  48.5745010  30.2551330  15.2198510  49.5183350
  30.1416780  15.5393120  50.4134870  31.0721070  15.6211020  49.2220630
  19.7185300  20.2891700  16.4245510  18.8302000  20.6307670  16.3225390
  20.0026490  20.0892020  15.5326340  17.6818310  22.8897350  22.3085210
  18.2534420  22.1219550  22.3088850  17.6819850  23.1886110  21.3991820
  18.9243180  18.2981710  24.0954140  18.7446020  17.4007460  24.3756900
  18.5223260  18.8453580  24.7701090  21.8946690  18.8723200  17.4583890
  22.0013440  19.7726930  17.7652650  20.9839050  18.8241170  17.1678540
  19.5429850  20.7942210  22.7036480  20.2239960  21.0580580  23.3223880
  19.2277900  19.9543080  23.0374490  22.0190520  16.4808130  26.0572490
  22.0208960  16.9980520  25.2518390  21.1894830  16.0038310  26.0342420
  17.7744810  27.2783970  14.9302020  17.3972790  27.7671070  14.1986920
  18.0317880  27.9509250  15.5608550  25.3833740  15.6800360  20.3887530
  25.6908720  15.1247250  19.6723030  24.4534440  15.8144820  20.2060520
  23.3771140  24.2713930  19.9067380  22.9728140  23.5591180  19.4113280
  23.4634260  23.9267170  20.7955420  33.5593630  15.7999110  12.9496690
  33.2466290  15.8925940  13.8495760  34.3206100  16.3780140  12.8994120
  20.0775770  23.1658910  17.4074030  19.9573370  23.8921000  16.7955300
  19.7676660  22.3961820  16.9301940  18.9608770  28.0374240  19.6248850
  18.5536850  28.1788830  18.7702450  19.8521780  27.7534400  19.4220060
  22.5439430  16.5093980  20.7897700  22.1007580  17.2903520  20.4582220
  23.1024420  16.8323870  21.4968640  25.6598250  16.1304680  15.6703530
  25.0352430  16.1264550  16.3956840  25.5728370  15.2635640  15.2739500
  22.3353650  21.6327550  18.5178950  22.1094570  21.4164720  19.4225570
  21.5546180  22.0656010  18.1724920  17.2080450  16.8655260  21.3703080
  16.9193500  17.4358120  22.0828060  17.9526210  16.3859710  21.7334310
  17.3950680  20.8075380  12.5805800  17.3125350  21.7506140  12.7220790
  17.0433740  20.6650290  11.7018150  21.0451190  19.4240900  20.6070360
  20.7051240  19.9016130  21.3637410  20.2828510  18.9706020  20.2471460
  25.2568960  20.5426490  14.6382910  25.3781780  20.5012970  15.5868730
  24.8717470  21.4050640  14.4829640  24.2690460  22.8527630  14.0366210
  23.7007360  22.4045880  13.4102120  24.9779460  23.2120410  13.5031360
  18.3597270  18.3459880  19.5235030  18.0744190  17.9815550  20.3613650
  18.2976130  17.6140340  18.9098170  21.8137940  26.8485820  16.3092620
  21.0400200  26.3083440  16.1491340  22.5432570  26.3292430  15.9710380
  28.0335860  17.2389140  16.2448400  27.2200470  16.7402310  16.1693710
  27.8397810  18.0787390  15.8284750  26.7444840  27.7832480  15.2198730
  27.0860540  28.5274710  14.7242050  25.9157550  28.0963600  15.5823560
  17.8527930  23.4818830  13.4831730  18.7222780  23.7643630  13.7667650
  17.3618250  24.2954700  13.3680540  20.9174520  15.2129690  18.0762530
  20.7889150  15.2047590  19.0247450  20.0936540  15.5512780  17.7253540
  18.2199180  32.6946210  14.0493360  18.5796820  33.2935550  13.3950630
  18.0791520  33.2406100  14.8228390  17.9168450  16.9720810  27.5369230
  17.2026970  17.1717730  28.1421840  18.3363490  16.1960380  27.9084030
  24.2367800  30.0777410  14.8667030  24.2277900  30.8107100  14.2511540
  23.3166160  29.8308990  14.9593990  19.8374440  25.2992300  15.6113790
  19.2302390  26.0391200  15.6209090  20.3123790  25.3891660  14.7851990
  27.2227400  30.1405650  13.5292220  27.3239380  29.9369640  12.5994200
  26.3229140  29.8863930  13.7340000  24.7453290  20.6986010  17.5116120
  24.0369440  21.1672350  17.9529730  25.0297770  20.0408020  18.1461310
  22.9488310  19.0071090  14.8866830  23.7978840  19.4441240  14.8207020
  22.5819580  19.3191350  15.7138890  21.8479730  25.2603450  13.3602360
  22.6143000  25.1484810  13.9227790  21.9254420  24.5641420  12.7079130
  20.5426490  22.6928520  14.0435250  20.6230080  21.7456030  14.1552650
  21.4346240  23.0235400  14.1495910  18.2286680  28.9097480  17.0211300
  17.3026460  29.1518620  17.0116710  18.6943110  29.7371740  16.8996050
  24.4543510  32.0154220  12.9695360  25.2472120  32.3043050  12.5177150
  23.9347860  31.5846390  12.2907840  24.9720910  27.2357630  12.8337710
  24.8671550  26.6209980  13.5599090  24.8045130  26.7123520  12.0500720
  23.8798760  25.2568580  15.3345000  24.3015180  25.0908450  16.1776390
  24.0049600  24.4468810  14.8400140  26.3926400  24.2806190  12.5822100
  26.9132060  23.5655210  12.2163250  27.0394800  24.9192060  12.8822610
  22.7757660  21.3301810  12.2803160  22.5746720  20.4669170  12.6416500
  22.6049710  21.2435170  11.3424760  30.2545970  16.1410040  14.8090040
  30.5348260  15.2977940  15.1649460  29.4811700  16.3733150  15.3228790
  21.5740460  18.4302430  12.2681040  21.8766360  18.4369860  11.3600190
  22.3135050  18.0800290  12.7648700  24.7925390  17.3737050  13.2537240
  24.4447390  16.6961040  12.6739690  24.9938160  16.9126560  14.0680630
  20.5970590  27.7344850  13.1010840  21.0345460  28.2774520  13.7568420
  21.0818320  26.9091800  13.1107180  17.8116390  30.5233880  20.5531100
  18.1419400  29.6554940  20.3209740  18.2407390  30.7292400  21.3836060
  22.4078310  28.8542890  18.2133070  22.1073850  28.7307860  19.1136980
  22.3015800  27.9951480  17.8048800  18.1331030  23.9024700  19.6501610
  17.4779870  23.6336340  19.0061310  18.9708980  23.7929180  19.2003590
  31.0821470  18.6965990  13.8720100  31.5006350  18.5096970  13.0316760
  30.7757530  17.8445040  14.1823030  17.3469110  21.1123630  15.5926940
  16.4433190  21.3753830  15.4178600  17.8309730  21.3834800  14.8126900
  19.8896320  20.1689170  13.5021320  20.5988020  19.7472390  13.0168600
  19.1736260  20.2364400  12.8704670  19.5370480  16.2228500  12.5423970
  20.2598610  16.7637440  12.8605190  19.8095000  15.9491920  11.6665510
  19.2262670  15.4734690  22.4446590  19.8738860  14.9232070  22.0041750
  19.6464510  15.7277840  23.2662400  35.6639560  17.5589840  12.5839370
  36.5888870  17.4271020  12.3757660  35.6415350  17.6382660  13.5375820
  18.9794670  15.6290360  25.1871910  18.6309490  16.0854180  25.9530090
  18.6482370  14.7347490  25.2694340  19.6515310  15.1566560  28.4622680
  20.1998300  14.9754610  27.6988790  19.7170620  14.3660670  28.9978990
  18.3389300  32.4304980  18.6327680  18.1711340  31.7975660  19.3309570
  17.4723810  32.6364380  18.2821870  18.9617320  16.2621760  16.1359540
  19.7196680  16.3750640  15.5623570  18.4994490  17.0990960  16.0902970
  25.5031130  18.3761030  19.1261850  24.6905640  18.0017920  18.7857730
  26.0072770  17.6206110  19.4283040  30.0056110  15.0403480  20.3644920
  30.6085480  15.6123690  20.8393440  29.2649100  15.6042920  20.1418820
  19.9452000  31.1238210  16.0777820  19.4199620  31.5046240  15.3739780
  19.8696580  31.7488980  16.7987530  21.3342470  16.7885810  14.6761510
  21.8635230  16.0015610  14.5469460  21.9670790  17.4677000  14.9097040
  23.5280310  16.5260950  17.7306900  22.8983050  15.8248260  17.8977030
  22.9885450  17.2865080  17.5140060  23.6535870  15.8044930  30.1659390
  23.3720140  16.3078530  29.4020210  24.0355570  15.0066680  29.8001520
  22.5444970  33.0720590  14.9527070  23.2763790  32.7879870  14.4050960
  22.8038640  32.8333870  15.8426450  21.7059760  29.1885320  14.9573400
  21.0768640  29.6570420  15.5059230  21.8207590  28.3434540  15.3919590
  27.2927520  25.0170000   2.9883870  26.5169620  24.5370440   3.2782440
  27.9440450  24.3375650   2.8140030  21.3093350  25.3289810   3.8659630
  20.4778230  25.0738520   4.2656140  21.9174330  25.4000580   4.6017550
  31.3134950  29.4230190   1.7683000  30.8516480  28.6517430   2.0970170
  32.1260500  29.4496260   2.2735450  21.2894610  29.3629900   4.0617650
  21.5922650  28.4727640   3.8827870  22.0338200  29.9200120   3.8339900
  17.6818310  22.8897350   3.5341720  18.2534420  22.1219550   3.5345360
  17.6819850  23.1886110   2.6248330  26.7336510  27.6927190   2.9954030
  26.6644790  26.7517130   2.8343160  27.4956370  27.7828600   3.5676600
  18.9243180  18.2981710   5.3210650  18.7446020  17.4007460   5.6013410
  18.5223260  18.8453580   5.9957600  27.7641680  20.4997570   3.2222960
  28.1406500  19.6269450   3.1096630  27.6661190  20.8356270   2.3313400
  19.5429850  20.7942210   3.9292990  20.2239960  21.0580580   4.5480390
  19.2277900  19.9543080   4.2631000  23.7354420  21.8409570   3.0165580
  24.2432640  22.3390540   3.6570600  24.2667660  21.0644770   2.8404940
  35.8365350  20.0114760   6.7194930  35.1317520  20.3996470   6.2010040
  36.1023270  20.7065050   7.3215860  22.0190520  16.4808130   7.2829000
  22.0208960  16.9980520   6.4774900  21.1894830  16.0038310   7.2598930
  23.2693370  26.1203310   5.4602500  22.9362750  26.7472230   6.1023570
  23.4460050  26.6465190   4.6804170  31.7827280  19.9348390   2.9278840
  31.0782850  20.2233280   3.5081950  32.1439440  20.7448500   2.5678400
  21.7005850  18.1918090   5.2899450  22.0422660  19.0360140   4.9953320
  20.7621660  18.3401830   5.4064790  22.4812470  28.0884110   7.2751680
  23.0986470  28.7635190   6.9936130  21.6205590  28.4972090   7.1839180
  33.3990060  29.5523520   5.1906320  32.7153580  30.2222630   5.1822990
  33.9384350  29.7504170   4.4251180  34.8514200  19.3803180   3.3188050
  33.9039110  19.4142160   3.4503480  35.1764190  20.1942130   3.7037410
  30.9348800  31.3967650   3.9051500  30.9475960  30.9929940   3.0373760
  30.3824020  32.1714940   3.8012930  30.3334240  26.2997490   5.2334110
  30.7503030  26.0857600   4.3987570  31.0574060  26.5570280   5.8042730
  34.2796340  24.6984710   5.3250350  33.4514970  24.7677800   4.8500480
  34.8746820  25.2839020   4.8566180  31.2438350  21.4854030   6.2705220
  30.8309530  22.3107740   6.5245210  30.5114300  20.8999070   6.0781580
  23.8452840  27.9581490   3.2963100  23.5481130  27.3526960   2.6170880
  24.7952660  27.9958800   3.1852460  22.0899760  21.0457140   4.9122930
  22.6414350  21.1552480   4.1376180  22.6043270  21.4194740   5.6278160
  31.9338450  31.5313360   6.9586200  31.4569010  32.3385550   6.7658810
  31.2500240  30.8791690   7.1112410  22.9371270  27.6963180   9.9470900
  22.0399800  27.9203150  10.1944300  22.9624140  27.8198120   8.9982300
  21.7642490  24.5676500   8.5228270  21.6250260  25.4399300   8.8915670
  20.8823850  24.2249310   8.3776210  23.5622840  30.5098200  10.7313420
  23.5338270  30.9141150   9.8641850  23.3987810  29.5808560  10.5685020
  17.7161140  26.3374050   4.4399180  17.7941560  26.4722820   3.4954900
  18.3302820  25.6289940   4.6327300  34.9170910  28.4838150   9.1877600
  35.0433970  28.2450030   8.2694780  34.9592290  27.6522690   9.6599680
  28.7787650  32.1866150   7.7572410  29.2932320  32.0974160   8.5594840
  27.9356730  32.5325850   8.0500320  34.7694920  20.5370610  10.1527340
  34.1539190  21.0450280   9.6242800  34.4491340  19.6368940  10.0953280
  17.7720660  27.3788220   6.9793640  17.9351700  26.9093580   6.1613010
  18.2373110  26.8711780   7.6442480  22.5439430  16.5093980   2.0154210
  22.1007580  17.2903520   1.6838730  23.1024420  16.8323870   2.7225150
  26.8309240  19.3762500   7.6189530  26.3688610  19.5845520   8.4309470
  26.4287350  18.5621850   7.3160200  31.8313750  20.5971450   8.7486190
  30.9807340  20.2977200   9.0695260  31.6715540  20.8413460   7.8370010
  28.9263460  22.0973200  10.8484980  29.2516870  21.2636950  10.5087210
  29.7143790  22.6201720  10.9963310  24.5815330  17.0541310   3.8743810
  24.8787660  17.9604140   3.7935830  25.1300890  16.5660090   3.2603380
  24.7752860  22.5313130  10.4095730  24.6796460  21.5907860  10.2596130
  25.6184840  22.7528200  10.0143800  19.9063400  18.9426800   8.5629510
  19.5126790  19.7902010   8.7702290  19.2181800  18.3053170   8.7538150
  26.4808450  19.0261770  11.6326250  25.7906770  18.8333970  12.2672340
  27.2240750  19.3096410  12.1650550  17.2080450  16.8655260   2.5959590
  16.9193500  17.4358120   3.3084570  17.9526210  16.3859710   2.9590820
  28.7571420  22.8660210   4.4680170  28.0252540  23.3747020   4.8170270
  28.3595760  22.0490190   4.1668950  25.1948810  19.5414410   2.8732660
  25.1984870  19.1004360   2.0237200  26.0899930  19.8631740   2.9804480
  21.0451190  19.4240900   1.8326870  20.7051240  19.9016130   2.5893920
  20.2828510  18.9706020   1.4727970  29.2197330  18.3193890   3.8803110
  29.2370070  18.7702540   4.7244960  28.9712910  17.4199530   4.0936550
  32.6468080  15.7326070   9.7189490  32.9713850  15.0015730  10.2447470
  32.6824590  15.4139710   8.8170480  19.3459640  26.7539650   9.1389450
  18.9614430  26.1133320   9.7372410  19.6571830  27.4575770   9.7084180
  25.4956780  23.6016190   4.6198070  25.8626910  23.1274760   5.3659410
  25.3061840  24.4757760   4.9606410  23.2856150  22.6424830   6.9382280
  22.9813220  23.5216810   7.1632640  24.2402610  22.7024620   6.9739720
  32.5725920  25.8451180   3.3275520  33.2925040  26.3406470   2.9371630
  32.3707740  25.1669070   2.6829390  27.9544720  25.9160240   9.2144520
  27.8882030  24.9955910   8.9602110  27.3249860  26.0135680   9.9289160
  19.3419880  23.4827570   8.0853640  18.9834820  24.1481420   8.6726980
  19.0474440  22.6511120   8.4566260  22.5433000  23.9411810  10.9693190
  22.2433140  24.0868990  10.0721010  23.3144240  23.3817100  10.8766580
  27.8861450  28.7380810   8.9648320  27.9005990  27.8061770   8.7467230
  27.1786550  28.8240570   9.6038090  34.0972660  25.3788150   8.3116900
  33.3720850  25.9716930   8.1146290  34.6248120  25.3711690   7.5130270
  27.3195350  30.3798380   6.0588820  27.9637570  30.5857760   6.7362240
  27.6824790  29.6186780   5.6059670  28.5927430  28.3830730   4.7766270
  29.2349660  27.6823890   4.8898440  29.1176780  29.1629170   4.5963160
  30.3665050  29.1825630   7.9802330  30.7021290  29.7692320   8.6580250
  29.4465390  29.0518340   8.2100120  17.9168450  16.9720810   8.7625740
  17.2026970  17.1717730   9.3678350  18.3363490  16.1960380   9.1340540
  18.2041040  30.9601070   9.7492270  18.3132160  30.0195810   9.6087660
  17.5521600  31.2255820   9.1006000  26.1953630  29.2316960  11.1490390
  25.8750500  28.5126200  11.6936080  25.5211990  29.9072030  11.2226450
  29.4107230  19.4643120   6.5127190  29.7788050  18.6438330   6.8406760
  28.5505430  19.5245010   6.9282840  26.3709220  22.1182710   6.7365160
  26.8694470  22.5928530   7.4017010  26.5132170  21.1946230   6.9435190
  33.5776080  18.3350670   7.5793550  33.0749680  19.0756070   7.9187360
  34.3932740  18.7234670   7.2630340  33.8723670  30.7492700   2.7009170
  33.9971090  31.5723870   3.1732980  34.7389230  30.5383430   2.3533320
  21.3441200  32.8423910   2.3726300  22.0803680  32.2939370   2.6434870
  21.7282120  33.7079920   2.2332290  20.3499480  32.0269980  11.5611880
  21.1512210  32.3482030  11.9747280  19.8351300  31.6665560  12.2831790
  29.1864110  28.1349850  11.5087290  28.5802270  28.1581450  10.7683040
  28.8818220  27.4032890  12.0454540  30.6164480  31.8630140  10.1196700
  31.5686230  31.7788160  10.0696940  30.4692700  32.5271850  10.7930490
  18.0697290  24.5143440  10.5047930  18.5736310  23.9350720  11.0764160
  17.3304710  24.7983670  11.0424300  25.1235230  25.9214430  10.0383450
  24.3580900  26.4899430   9.9538120  25.3051190  25.6290640   9.1451680
  32.2658580  27.6519760  10.5958470  33.0068050  27.9895520  10.0925930
  31.5031260  27.8211820  10.0428240  20.1020370  22.6573030  11.3998000
  20.1425710  22.3586900  12.3083230  20.9565870  23.0580640  11.2405520
  22.0426180  21.2365130   9.3672490  21.5122640  20.7456080   8.7395830
  22.7114250  21.6649330   8.8330420  30.9404240  25.7034590   9.1313680
  31.3545260  25.8579670   9.9804100  30.0055240  25.8289810   9.2939460
  31.4126410  23.0430750  11.1352830  31.9947180  22.2883070  11.0473310
  31.5888180  23.5738190  10.3584310  22.5298480  18.2027500   9.4469780
  22.4355350  17.5848250   8.7220650  21.9495870  18.9293790   9.2199690
  25.2959920  16.7600740   6.4797170  24.8477220  16.7825000   5.6342720
  24.6625120  16.3619760   7.0767470  25.7019470  25.6555070   7.1009610
  26.1207580  26.4987800   6.9285850  24.7828100  25.7927110   6.8716390
  28.0383370  23.3871250   8.4847450  28.1579580  22.7912390   9.2242290
  28.8977370  23.4240940   8.0648750  30.3771270  23.9408440   7.0609960
  29.8506490  24.4651060   6.4575100  30.7202610  24.5735830   7.6919690
  23.5526890  31.9608080   8.2167340  23.0147980  32.6854140   7.8976040
  23.8060850  31.4838420   7.4264680  24.8052140  19.9292600   9.7423270
  25.3951830  19.6208450  10.4301090  23.9872380  19.4572350   9.8983170
  29.6245570  19.5458410   9.9756290  28.9361090  18.8839950   9.9106280
  30.3451590  19.0996680  10.4204750  26.4089100  33.1959290   8.4753990
  26.3347800  34.0994430   8.7826360  25.5067940  32.8771190   8.4476060
  17.8116390  30.5233880   1.7787610  18.1419400  29.6554940   1.5466250
  18.2407390  30.7292400   2.6092570  18.3006600  31.3904470   4.5169240
  17.8637590  31.5705270   5.3493390  18.8684280  32.1479090   4.3750960
  33.9368780  30.8921470   8.8046550  33.3370770  30.9514030   8.0610470
  34.0662680  29.9526450   8.9343400  32.6220420  27.6173450   6.9022710
  31.8080260  28.0470610   7.1648500  33.0294620  28.2291860   6.2891760
  19.1706960  24.2877270   5.4161460  19.5380000  24.2004670   6.2957480
  18.6017780  23.5243820   5.3168320  33.9710820  22.7561650   8.4291930
  33.7396910  22.5274400   7.5289880  34.2315370  23.6761200   8.3836820
  18.7222960  21.1986360   9.3219880  17.8279010  21.1653120   9.6613590
  19.2620510  21.3973150  10.0871130  32.4098890  17.9818080  11.2071630
  33.2869070  17.9901480  11.5905630  32.4219730  17.2448920  10.5963980
  33.8562160  21.8347620   2.0959650  34.3799640  21.3410270   1.4649820
  34.4421580  21.9697980   2.8407220  34.0351880  21.9187490   5.6179200
  33.0854590  21.8851030   5.7324190  34.2164890  22.8287600   5.3828970
  19.2262670  15.4734690   3.6703100  19.8738860  14.9232070   3.2298260
  19.6464510  15.7277840   4.4918910  33.1215010  15.6676050   7.0272740
  33.7587230  16.2810190   7.3931930  33.2689900  15.7036710   6.0821970
  18.9794670  15.6290360   6.4128420  18.6309490  16.0854180   7.1786600
  18.6482370  14.7347490   6.4950850  20.5859040  28.8009960  10.5781610
  20.5428670  28.4302870  11.4596070  20.7170050  29.7387530  10.7183430
  24.2865070  30.3569550   6.1791330  24.0456430  30.6244110   5.2921850
  25.2267710  30.5275280   6.2342190  26.4919490  16.8202240   9.9347840
  26.4308380  17.4124070  10.6843250  27.4319870  16.7128200   9.7898100
  29.1294050  16.4772300   9.5740130  29.7434460  16.7951590   8.9121210
  29.6743610  15.9920890  10.1935990  35.5469230  32.3763930   6.9801970
  35.0527510  32.7732800   6.2629100  34.9382520  31.7513140   7.3739250
  19.6515310  15.1566560   9.6879190  20.1998300  14.9754610   8.9245300
  19.7170620  14.3660670  10.2235500  20.4247070  31.7472210   7.6979390
  19.8307390  31.6156910   8.4369430  20.4170910  30.9110350   7.2321490
  29.8702090  15.0404440   5.9009420  28.9961930  15.3739550   5.6982350
  29.7612840  14.5677620   6.7261290  30.7774070  17.2475310   7.2851140
  30.4487430  16.4327070   6.9052870  31.7256370  17.2045120   7.1616830
  33.2308680  33.0187350   4.2588710  32.7711650  33.7703160   3.8846730
  32.6021140  32.2993820   4.2003510  20.0559300  29.1130590   6.6487430
  19.3293360  28.4935880   6.5813380  20.1168450  29.5071200   5.7785510
  23.6604400  31.3275590   3.4336840  24.1769420  30.7162950   2.9085100
  24.3101780  31.8304370   3.9247850  26.3999900  32.2184080   4.2605820
  26.6877710  31.9638380   3.3838830  26.9123120  31.6661440   4.8511390
  27.6176910  15.9574280   4.8402330  26.8348700  16.4319780   5.1199090
  27.3239840  15.0529110   4.7315510  32.1697980  16.6597380   2.8851420
  32.6106070  16.6042480   2.0373020  31.9005570  17.5755390   2.9561600
  26.4672260  33.1400180  11.6274020  27.3939570  32.9044450  11.6709980
  26.4522690  33.9672180  11.1460050  23.6535870  15.8044930  11.3915900
  23.3720140  16.3078530  10.6276720  24.0355570  15.0066680  11.0258030
  30.2551330  15.2198510  11.9696370  30.1416780  15.5393120  12.8647890
  31.0721070  15.6211020  11.6733650  33.0349820  32.3670040  11.4515060
  33.8275140  31.8719270  11.2441020  33.3282970  33.0460180  12.0590670
  29.1609480   4.4647490  57.4305070  29.0803530   3.5502100  57.1596780
  28.7473900   4.9614560  56.7244780  27.2927520   6.2426510  59.3114340
  26.5169620   5.7626950  59.6012910  27.9440450   5.5632160  59.1370500
  31.3134950  10.6486700  58.0913470  30.8516480   9.8773940  58.4200640
  32.1260500  10.6752770  58.5965920  17.6818310   4.1153860  59.8572190
  18.2534420   3.3476060  59.8575830  17.6819850   4.4142620  58.9478800
  27.5398260  12.9344710  57.7117460  26.9209700  13.3902210  57.1411900
  28.3950040  13.0896170  57.3107160  26.7336510   8.9183700  59.3184500
  26.6644790   7.9773640  59.1573630  27.4956370   9.0085110  59.8907070
  23.7354420   3.0666080  59.3396050  24.2432640   3.5647050  59.9801070
  24.2667660   2.2901280  59.1635410  28.4061610   7.8183950  55.1049370
  27.7878880   8.2833400  54.5412090  28.9184860   8.5111430  55.5218880
  17.7744810   8.5040480  52.4789000  17.3972790   8.9927580  51.7473900
  18.0317880   9.1765760  53.1095530  30.9348800  12.6224160  60.2281970
  30.9475960  12.2186450  59.3604230  30.3824020  13.3971450  60.1243400
  32.2294220   9.3440380  55.3172140  32.1190550   8.4014710  55.4421560
  32.2262470   9.7056020  56.2034900  27.7714500   4.9705700  54.6734630
  26.8443780   4.9043080  54.9023100  27.9239320   5.9085830  54.5589870
  31.8011790   6.5326000  55.1769880  31.1824210   6.1945550  54.5296180
  31.7836240   5.8885760  55.8849070  23.3771140   5.4970440  57.4554360
  22.9728140   4.7847690  56.9600260  23.4634260   5.1523680  58.3442400
  23.8452840   9.1838000  59.6193570  23.5481130   8.5783470  58.9401350
  24.7952660   9.2215310  59.5082930  29.9776490   5.7712810  52.1842630
  30.4169770   4.9335240  52.0380450  30.6904910   6.4042210  52.2706770
  28.0871870  10.7108880  56.1523870  28.5267780  11.4533210  55.7379260
  28.0258760  10.9535450  57.0762830  20.0775770   4.3915420  54.9561010
  19.9573370   5.1177510  54.3442280  19.7676660   3.6218330  54.4788920
  18.9608770   9.2630750  57.1735830  18.5536850   9.4045340  56.3189430
  19.8521780   8.9790910  56.9707040  30.7542050  13.6978000  53.5086880
  30.5943190  13.4080940  54.4068710  30.5888760  12.9218130  52.9732110
  23.2330430  13.4776530  55.2858500  23.0572910  12.5612070  55.0726300
  22.3786170  13.8363820  55.5256300  30.4568180  11.2065560  52.0684880
  29.7633340  11.2042850  51.4087160  31.1991040  10.7824880  51.6379050
  30.0218110  12.8328270  56.1433370  30.4775060  12.0517650  56.4571990
  30.3610630  13.5435090  56.6874550  22.3353650   2.8584060  56.0665930
  22.1094570   2.6421230  56.9712550  21.5546180   3.2912520  55.7211900
  29.5651410   2.8647430  54.6656580  28.9660300   3.5883230  54.4820200
  30.1131020   2.8024210  53.8833030  17.3950680   2.0331890  50.1292780
  17.3125350   2.9762650  50.2707770  17.0433740   1.8906800  49.2505130
  25.2568960   1.7683000  52.1869890  25.3781780   1.7269480  53.1355710
  24.8717470   2.6307150  52.0316620  24.2690460   4.0784140  51.5853190
  23.7007360   3.6302390  50.9589100  24.9779460   4.4376920  51.0518340
  21.8137940   8.0742330  53.8579600  21.0400200   7.5339950  53.6978320
  22.5432570   7.5548940  53.5197360  32.5725920   7.0707690  59.6505990
  33.2925040   7.5662980  59.2602100  32.3707740   6.3925580  59.0059860
  30.7484250   2.8365300  52.0897540  31.6363870   3.1482530  51.9148880
  30.7189340   1.9637550  51.6978120  21.8575340   7.7422710  57.4958410
  22.3754010   6.9390970  57.4415300  21.4059360   7.6801850  58.3375240
  26.7444840   9.0088990  52.7685710  27.0860540   9.7531220  52.2729030
  25.9157550   9.3220110  53.1310540  33.0198520   4.1477140  51.5577400
  32.9362240   4.5791360  50.7073840  33.7392710   4.6075490  51.9904220
  34.0485770  11.0019400  54.2859530  33.4061930  10.3475020  54.5603250
  33.6616430  11.4074490  53.5100200  29.6272250   8.3304830  58.1331220
  29.9796070   7.7332960  57.4732590  28.7434580   8.0049060  58.3039470
  25.7135530   9.0902520  55.5401630  26.4006660   9.6371730  55.9209220
  24.9267950   9.6343250  55.5751240  17.8527930   4.7075340  51.0318710
  18.7222780   4.9900140  51.3154630  17.3618250   5.5211210  50.9167520
  25.0162740   6.0948550  55.1526990  25.4725520   6.9053800  55.3787180
  24.6650950   5.7771690  55.9845480  32.4383150   9.8935860  50.8235880
  32.2120730   9.1766300  51.4160520  32.0479350   9.6448300  49.9857630
  18.2199180  13.9202720  51.5980340  18.5796820  14.5192060  50.9437610
  18.0791520  14.4662610  52.3715370  32.0199400   7.8107800  52.4850040
  31.7321100   8.2720490  53.2727920  32.8151570   7.3505570  52.7534260
  24.2367800  11.3033920  52.4154010  24.2277900  12.0363610  51.7998520
  23.3166160  11.0565500  52.5080970  19.8374440   6.5248810  53.1600770
  19.2302390   7.2647710  53.1696070  20.3123790   6.6148170  52.3338970
  27.2227400  11.3662160  51.0779200  27.3239380  11.1626150  50.1481180
  26.3229140  11.1120440  51.2826980  25.8645510  13.8848480  55.7726870
  26.1187010  13.8469870  54.8506240  24.9157990  13.7581810  55.7655120
  31.8698090   4.8040360  57.3485380  30.9288230   4.8190590  57.5233070
  32.1842160   4.0176320  57.7945680  21.8479730   6.4859960  50.9089340
  22.6143000   6.3741320  51.4714770  21.9254420   5.7897930  50.2566110
  20.5426490   3.9185030  51.5922230  20.6230080   2.9712540  51.7039630
  21.4346240   4.2491910  51.6982890  33.8723670  11.9749210  59.0239640
  33.9971090  12.7980380  59.4963450  34.7389230  11.7639940  58.6763790
  21.3441200  14.0680420  58.6956770  22.0803680  13.5195880  58.9665340
  21.7282120  14.9336430  58.5562760  18.2286680  10.1353990  54.5698280
  17.3026460  10.3775130  54.5603690  18.6943110  10.9628250  54.4483030
  24.4543510  13.2410730  50.5182340  25.2472120  13.5299560  50.0664130
  23.9347860  12.8102900  49.8394820  33.5073680  12.4680860  51.9419080
  33.2215190  12.0546000  51.1273260  33.3093230  13.3968570  51.8219600
  24.9720910   8.4614140  50.3824690  24.8671550   7.8466490  51.1086070
  24.8045130   7.9380030  49.5987700  28.2123640   7.5234170  50.9866680
  27.6633740   7.9703470  51.6309420  28.8342900   7.0183420  51.5104350
  23.8798760   6.4825090  52.8831980  24.3015180   6.3164960  53.7263370
  24.0049600   5.6725320  52.3887120  26.3926400   5.5062700  50.1309080
  26.9132060   4.7911720  49.7650230  27.0394800   6.1448570  50.4309590
  22.7757660   2.5558320  49.8290140  22.5746720   1.6925680  50.1903480
  22.6049710   2.4691680  48.8911740  26.9574430  13.5874310  52.4210820
  27.8525220  13.9259280  52.4429580  26.9892060  12.8653720  51.7935100
  20.5970590   8.9601360  50.6497820  21.0345460   9.5031030  51.3055400
  21.0818320   8.1348310  50.6594160  17.8116390  11.7490390  58.1018080
  18.1419400  10.8811450  57.8696720  18.2407390  11.9548910  58.9323040
  22.4078310  10.0799400  55.7620050  22.1073850   9.9564370  56.6623960
  22.3015800   9.2207990  55.3535780  35.1770230   9.8595800  50.4646730
  34.3463190   9.9272450  50.9353960  35.3542060  10.7499920  50.1613590
  34.6326690   6.6043280  52.9680930  35.3945600   7.1739930  53.0740620
  34.6481060   6.0370480  53.7389240  18.1331030   5.1281210  57.1988590
  17.4779870   4.8592850  56.5548290  18.9708980   5.0185690  56.7490570
  35.6386660   7.4593380  57.8122860  36.0095490   6.6760700  57.4058830
  36.2788590   8.1482480  57.6340160  34.6845860   6.8977650  50.1253450
  34.9594700   7.8056530  49.9972670  34.4956600   6.8340180  51.0615440
  34.5811200   4.8346640  55.1182880  34.2054800   4.0674570  54.6864170
  33.8514320   5.2169340  55.6057810  17.3469110   2.3380140  53.1413920
  16.4433190   2.6010340  52.9665580  17.8309730   2.6091310  52.3613880
  33.8562160   3.0604130  58.4190120  34.3799640   2.5666780  57.7880290
  34.4421580   3.1954490  59.1637690  32.6796470  13.5948560  56.7521450
  33.2755540  13.2733130  56.0755870  32.9374620  13.1220380  57.5434720
  23.6604400  12.5532100  59.7567310  24.1769420  11.9419460  59.2315570
  24.3101780  13.0560880  60.2478320  18.3389300  13.6561490  56.1814660
  18.1711340  13.0232170  56.8796550  17.4723810  13.8620890  55.8308850
  19.9452000  12.3494720  53.6264800  19.4199620  12.7302750  52.9226760
  19.8696580  12.9745490  54.3474510  34.7017320  13.9082260  54.9478740
  34.8769510  13.2220000  54.3039660  34.0038890  14.4329310  54.5555410
  22.5444970  14.2977100  52.5014050  23.2763790  14.0136380  51.9537940
  22.8038640  14.0590380  53.3913430  21.7059760  10.4141830  52.5060380
  21.0768640  10.8826930  53.0546210  21.8207590   9.5691050  52.9406570
  29.1609480   4.4647490  38.6561580  29.0803530   3.5502100  38.3853290
  28.7473900   4.9614560  37.9501290  27.2927520   6.2426510  40.5370850
  26.5169620   5.7626950  40.8269420  27.9440450   5.5632160  40.3627010
  21.3093350   6.5546320  41.4146610  20.4778230   6.2995030  41.8143120
  21.9174330   6.6257090  42.1504530  31.3134950  10.6486700  39.3169980
  30.8516480   9.8773940  39.6457150  32.1260500  10.6752770  39.8222430
  21.2894610  10.5886410  41.6104630  21.5922650   9.6984150  41.4314850
  22.0338200  11.1456630  41.3826880  17.6818310   4.1153860  41.0828700
  18.2534420   3.3476060  41.0832340  17.6819850   4.4142620  40.1735310
  26.7336510   8.9183700  40.5441010  26.6644790   7.9773640  40.3830140
  27.4956370   9.0085110  41.1163580  23.7354420   3.0666080  40.5652560
  24.2432640   3.5647050  41.2057580  24.2667660   2.2901280  40.3891920
  28.4061610   7.8183950  36.3305880  27.7878880   8.2833400  35.7668600
  28.9184860   8.5111430  36.7475390  23.2693370   7.3459820  43.0089480
  22.9362750   7.9728740  43.6510550  23.4460050   7.8721700  42.2291150
  22.4812470   9.3140620  44.8238660  23.0986470   9.9891700  44.5423110
  21.6205590   9.7228600  44.7326160  17.7744810   8.5040480  33.7045510
  17.3972790   8.9927580  32.9730410  18.0317880   9.1765760  34.3352040
  33.3990060  10.7780030  42.7393300  32.7153580  11.4479140  42.7309970
  33.9384350  10.9760680  41.9738160  30.9348800  12.6224160  41.4538480
  30.9475960  12.2186450  40.5860740  30.3824020  13.3971450  41.3499910
  32.2294220   9.3440380  36.5428650  32.1190550   8.4014710  36.6678070
  32.2262470   9.7056020  37.4291410  30.3334240   7.5254000  42.7821090
  30.7503030   7.3114110  41.9474550  31.0574060   7.7826790  43.3529710
  27.7714500   4.9705700  35.8991140  26.8443780   4.9043080  36.1279610
  27.9239320   5.9085830  35.7846380  34.2796340   5.9241220  42.8737330
  33.4514970   5.9934310  42.3987460  34.8746820   6.5095530  42.4053160
  31.8011790   6.5326000  36.4026390  31.1824210   6.1945550  35.7552690
  31.7836240   5.8885760  37.1105580  31.2438350   2.7110540  43.8192200
  30.8309530   3.5364250  44.0732190  30.5114300   2.1255580  43.6268560
  23.3771140   5.4970440  38.6810870  22.9728140   4.7847690  38.1856770
  23.4634260   5.1523680  39.5698910  23.8452840   9.1838000  40.8450080
  23.5481130   8.5783470  40.1657860  24.7952660   9.2215310  40.7339440
  22.0899760   2.2713650  42.4609910  22.6414350   2.3808990  41.6863160
  22.6043270   2.6451250  43.1765140  31.9338450  12.7569870  44.5073180
  31.4569010  13.5642060  44.3145790  31.2500240  12.1048200  44.6599390
  22.9371270   8.9219690  47.4957880  22.0399800   9.1459660  47.7431280
  22.9624140   9.0454630  46.5469280  29.9776490   5.7712810  33.4099140
  30.4169770   4.9335240  33.2636960  30.6904910   6.4042210  33.4963280
  21.7642490   5.7933010  46.0715250  21.6250260   6.6655810  46.4402650
  20.8823850   5.4505820  45.9263190  28.0871870  10.7108880  37.3780380
  28.5267780  11.4533210  36.9635770  28.0258760  10.9535450  38.3019340
  23.5622840  11.7354710  48.2800400  23.5338270  12.1397660  47.4128830
  23.3987810  10.8065070  48.1172000  20.0775770   4.3915420  36.1817520
  19.9573370   5.1177510  35.5698790  19.7676660   3.6218330  35.7045430
  35.5137660  12.5181810  49.5764570  35.9897380  12.9964700  50.2553650
  36.1344820  12.4499300  48.8510070  17.7161140   7.5630560  41.9886160
  17.7941560   7.6979330  41.0441880  18.3302820   6.8546450  42.1814280
  18.9608770   9.2630750  38.3992340  18.5536850   9.4045340  37.5445940
  19.8521780   8.9790910  38.1963550  34.9170910   9.7094660  46.7364580
  35.0433970   9.4706540  45.8181760  34.9592290   8.8779200  47.2086660
  28.7787650  13.4122660  45.3059390  29.2932320  13.3230670  46.1081820
  27.9356730  13.7582360  45.5987300  23.2330430  13.4776530  36.5115010
  23.0572910  12.5612070  36.2982810  22.3786170  13.8363820  36.7512810
  30.4568180  11.2065560  33.2941390  29.7633340  11.2042850  32.6343670
  31.1991040  10.7824880  32.8635560  17.7720660   8.6044730  44.5280620
  17.9351700   8.1350090  43.7099990  18.2373110   8.0968290  45.1929460
  28.9263460   3.3229710  48.3971960  29.2516870   2.4893460  48.0574190
  29.7143790   3.8458230  48.5450290  22.3353650   2.8584060  37.2922440
  22.1094570   2.6421230  38.1969060  21.5546180   3.2912520  36.9468410
  29.5651410   2.8647430  35.8913090  28.9660300   3.5883230  35.7076710
  30.1131020   2.8024210  35.1089540  24.7752860   3.7569640  47.9582710
  24.6796460   2.8164370  47.8083110  25.6184840   3.9784710  47.5630780
  17.3950680   2.0331890  31.3549290  17.3125350   2.9762650  31.4964280
  17.0433740   1.8906800  30.4761640  28.7571420   4.0916720  42.0167150
  28.0252540   4.6003530  42.3657250  28.3595760   3.2746700  41.7155930
  25.2568960   1.7683000  33.4126400  25.3781780   1.7269480  34.3612220
  24.8717470   2.6307150  33.2573130  24.2690460   4.0784140  32.8109700
  23.7007360   3.6302390  32.1845610  24.9779460   4.4376920  32.2774850
  19.3459640   7.9796160  46.6876430  18.9614430   7.3389830  47.2859390
  19.6571830   8.6832280  47.2571160  25.4956780   4.8272700  42.1685050
  25.8626910   4.3531270  42.9146390  25.3061840   5.7014270  42.5093390
  23.2856150   3.8681340  44.4869260  22.9813220   4.7473320  44.7119620
  24.2402610   3.9281130  44.5226700  21.8137940   8.0742330  35.0836110
  21.0400200   7.5339950  34.9234830  22.5432570   7.5548940  34.7453870
  32.5725920   7.0707690  40.8762500  33.2925040   7.5662980  40.4858610
  32.3707740   6.3925580  40.2316370  27.9544720   7.1416750  46.7631500
  27.8882030   6.2212420  46.5089090  27.3249860   7.2392190  47.4776140
  30.7484250   2.8365300  33.3154050  31.6363870   3.1482530  33.1405390
  30.7189340   1.9637550  32.9234630  21.8575340   7.7422710  38.7214920
  22.3754010   6.9390970  38.6671810  21.4059360   7.6801850  39.5631750
  26.7444840   9.0088990  33.9942220  27.0860540   9.7531220  33.4985540
  25.9157550   9.3220110  34.3567050  19.3419880   4.7084080  45.6340620
  18.9834820   5.3737930  46.2213960  19.0474440   3.8767630  46.0053240
  22.5433000   5.1668320  48.5180170  22.2433140   5.3125500  47.6207990
  23.3144240   4.6073610  48.4253560  27.8861450   9.9637320  46.5135300
  27.9005990   9.0318280  46.2954210  27.1786550  10.0497080  47.1525070
  33.0198520   4.1477140  32.7833910  32.9362240   4.5791360  31.9330350
  33.7392710   4.6075490  33.2160730  34.0972660   6.6044660  45.8603880
  33.3720850   7.1973440  45.6633270  34.6248120   6.5968200  45.0617250
  34.0485770  11.0019400  35.5116040  33.4061930  10.3475020  35.7859760
  33.6616430  11.4074490  34.7356710  29.6272250   8.3304830  39.3587730
  29.9796070   7.7332960  38.6989100  28.7434580   8.0049060  39.5295980
  25.7135530   9.0902520  36.7658140  26.4006660   9.6371730  37.1465730
  24.9267950   9.6343250  36.8007750  17.8527930   4.7075340  32.2575220
  18.7222780   4.9900140  32.5411140  17.3618250   5.5211210  32.1424030
  25.0162740   6.0948550  36.3783500  25.4725520   6.9053800  36.6043690
  24.6650950   5.7771690  37.2101990  28.5927430   9.6087240  42.3253250
  29.2349660   8.9080400  42.4385420  29.1176780  10.3885680  42.1450140
  32.4383150   9.8935860  32.0492390  32.2120730   9.1766300  32.6417030
  32.0479350   9.6448300  31.2114140  30.3665050  10.4082140  45.5289310
  30.7021290  10.9948830  46.2067230  29.4465390  10.2774850  45.7587100
  18.2199180  13.9202720  32.8236850  18.5796820  14.5192060  32.1694120
  18.0791520  14.4662610  33.5971880  32.0199400   7.8107800  33.7106550
  31.7321100   8.2720490  34.4984430  32.8151570   7.3505570  33.9790770
  18.2041040  12.1857580  47.2979250  18.3132160  11.2452320  47.1574640
  17.5521600  12.4512330  46.6492980  26.1953630  10.4573470  48.6977370
  25.8750500   9.7382710  49.2423060  25.5211990  11.1328540  48.7713430
  24.2367800  11.3033920  33.6410520  24.2277900  12.0363610  33.0255030
  23.3166160  11.0565500  33.7337480  19.8374440   6.5248810  34.3857280
  19.2302390   7.2647710  34.3952580  20.3123790   6.6148170  33.5595480
  27.2227400  11.3662160  32.3035710  27.3239380  11.1626150  31.3737690
  26.3229140  11.1120440  32.5083490  26.3709220   3.3439220  44.2852140
  26.8694470   3.8185040  44.9503990  26.5132170   2.4202740  44.4922170
  31.8698090   4.8040360  38.5741890  30.9288230   4.8190590  38.7489580
  32.1842160   4.0176320  39.0202190  21.8479730   6.4859960  32.1345850
  22.6143000   6.3741320  32.6971280  21.9254420   5.7897930  31.4822620
  20.5426490   3.9185030  32.8178740  20.6230080   2.9712540  32.9296140
  21.4346240   4.2491910  32.9239400  33.8723670  11.9749210  40.2496150
  33.9971090  12.7980380  40.7219960  34.7389230  11.7639940  39.9020300
  21.3441200  14.0680420  39.9213280  22.0803680  13.5195880  40.1921850
  21.7282120  14.9336430  39.7819270  18.2286680  10.1353990  35.7954790
  17.3026460  10.3775130  35.7860200  18.6943110  10.9628250  35.6739540
  20.3499480  13.2526490  49.1098860  21.1512210  13.5738540  49.5234260
  19.8351300  12.8922070  49.8318770  24.4543510  13.2410730  31.7438850
  25.2472120  13.5299560  31.2920640  23.9347860  12.8102900  31.0651330
  29.1864110   9.3606360  49.0574270  28.5802270   9.3837960  48.3170020
  28.8818220   8.6289400  49.5941520  30.6164480  13.0886650  47.6683680
  31.5686230  13.0044670  47.6183920  30.4692700  13.7528360  48.3417470
  33.5073680  12.4680860  33.1675590  33.2215190  12.0546000  32.3529770
  33.3093230  13.3968570  33.0476110  18.0697290   5.7399950  48.0534910
  18.5736310   5.1607230  48.6251140  17.3304710   6.0240180  48.5911280
  24.9720910   8.4614140  31.6081200  24.8671550   7.8466490  32.3342580
  24.8045130   7.9380030  30.8244210  25.1235230   7.1470940  47.5870430
  24.3580900   7.7155940  47.5025100  25.3051190   6.8547150  46.6938660
  28.2123640   7.5234170  32.2123190  27.6633740   7.9703470  32.8565930
  28.8342900   7.0183420  32.7360860  32.2658580   8.8776270  48.1445450
  33.0068050   9.2152030  47.6412910  31.5031260   9.0468330  47.5915220
  20.1020370   3.8829540  48.9484980  20.1425710   3.5843410  49.8570210
  20.9565870   4.2837150  48.7892500  23.8798760   6.4825090  34.1088490
  24.3015180   6.3164960  34.9519880  24.0049600   5.6725320  33.6143630
  22.0426180   2.4621640  46.9159470  21.5122640   1.9712590  46.2882810
  22.7114250   2.8905840  46.3817400  26.3926400   5.5062700  31.3565590
  26.9132060   4.7911720  30.9906740  27.0394800   6.1448570  31.6566100
  30.9404240   6.9291100  46.6800660  31.3545260   7.0836180  47.5291080
  30.0055240   7.0546320  46.8426440  31.4126410   4.2687260  48.6839810
  31.9947180   3.5139580  48.5960290  31.5888180   4.7994700  47.9071290
  25.7019470   6.8811580  44.6496590  26.1207580   7.7244310  44.4772830
  24.7828100   7.0183620  44.4203370  28.0383370   4.6127760  46.0334430
  28.1579580   4.0168900  46.7729270  28.8977370   4.6497450  45.6135730
  30.3771270   5.1664950  44.6096940  29.8506490   5.6907570  44.0062080
  30.7202610   5.7992340  45.2406670  22.7757660   2.5558320  31.0546650
  22.5746720   1.6925680  31.4159990  22.6049710   2.4691680  30.1168250
  23.5526890  13.1864590  45.7654320  23.0147980  13.9110650  45.4463020
  23.8060850  12.7094930  44.9751660  26.4089100  14.4215800  46.0240970
  26.3347800  15.3250940  46.3313340  25.5067940  14.1027700  45.9963040
  20.5970590   8.9601360  31.8754330  21.0345460   9.5031030  32.5311910
  21.0818320   8.1348310  31.8850670  17.8116390  11.7490390  39.3274590
  18.1419400  10.8811450  39.0953230  18.2407390  11.9548910  40.1579550
  22.4078310  10.0799400  36.9876560  22.1073850   9.9564370  37.8880470
  22.3015800   9.2207990  36.5792290  18.3006600  12.6160980  42.0656220
  17.8637590  12.7961780  42.8980370  18.8684280  13.3735600  41.9237940
  33.9368780  12.1177980  46.3533530  33.3370770  12.1770540  45.6097450
  34.0662680  11.1782960  46.4830380  35.1770230   9.8595800  31.6903240
  34.3463190   9.9272450  32.1610470  35.3542060  10.7499920  31.3870100
  34.6326690   6.6043280  34.1937440  35.3945600   7.1739930  34.2997130
  34.6481060   6.0370480  34.9645750  18.1331030   5.1281210  38.4245100
  17.4779870   4.8592850  37.7804800  18.9708980   5.0185690  37.9747080
  35.6386660   7.4593380  39.0379370  36.0095490   6.6760700  38.6315340
  36.2788590   8.1482480  38.8596670  32.6220420   8.8429960  44.4509690
  31.8080260   9.2727120  44.7135480  33.0294620   9.4548370  43.8378740
  34.6845860   6.8977650  31.3509960  34.9594700   7.8056530  31.2229180
  34.4956600   6.8340180  32.2871950  34.5811200   4.8346640  36.3439390
  34.2054800   4.0674570  35.9120680  33.8514320   5.2169340  36.8314320
  19.1706960   5.5133780  42.9648440  19.5380000   5.4261180  43.8444460
  18.6017780   4.7500330  42.8655300  33.9710820   3.9818160  45.9778910
  33.7396910   3.7530910  45.0776860  34.2315370   4.9017710  45.9323800
  18.7222960   2.4242870  46.8706860  17.8279010   2.3909630  47.2100570
  19.2620510   2.6229660  47.6358110  17.3469110   2.3380140  34.3670430
  16.4433190   2.6010340  34.1922090  17.8309730   2.6091310  33.5870390
  33.8562160   3.0604130  39.6446630  34.3799640   2.5666780  39.0136800
  34.4421580   3.1954490  40.3894200  34.0351880   3.1444000  43.1666180
  33.0854590   3.1107540  43.2811170  34.2164890   4.0544110  42.9315950
  20.5859040  10.0266470  48.1268590  20.5428670   9.6559380  49.0083050
  20.7170050  10.9644040  48.2670410  24.2865070  11.5826060  43.7278310
  24.0456430  11.8500620  42.8408830  25.2267710  11.7531790  43.7829170
  35.5469230  13.6020440  44.5288950  35.0527510  13.9989310  43.8116080
  34.9382520  12.9769650  44.9226230  20.4247070  12.9728720  45.2466370
  19.8307390  12.8413420  45.9856410  20.4170910  12.1366860  44.7808470
  33.2308680  14.2443860  41.8075690  32.7711650  14.9959670  41.4333710
  32.6021140  13.5250330  41.7490490  20.0559300  10.3387100  44.1974410
  19.3293360   9.7192390  44.1300360  20.1168450  10.7327710  43.3272490
  18.3389300  13.6561490  37.4071170  18.1711340  13.0232170  38.1053060
  17.4723810  13.8620890  37.0565360  19.9452000  12.3494720  34.8521310
  19.4199620  12.7302750  34.1483270  19.8696580  12.9745490  35.5731020
  26.4672260  14.3656690  49.1761000  27.3939570  14.1300960  49.2196960
  26.4522690  15.1928690  48.6947030  34.7017320  13.9082260  36.1735250
  34.8769510  13.2220000  35.5296170  34.0038890  14.4329310  35.7811920
  21.7059760  10.4141830  33.7316890  21.0768640  10.8826930  34.2802720
  21.8207590   9.5691050  34.1663080  33.0349820  13.5926550  49.0002040
  33.8275140  13.0975780  48.7928000  33.3282970  14.2716690  49.6077650
  29.1609480   4.4647490  19.8818090  29.0803530   3.5502100  19.6109800
  28.7473900   4.9614560  19.1757800  27.2927520   6.2426510  21.7627360
  26.5169620   5.7626950  22.0525930  27.9440450   5.5632160  21.5883520
  21.3093350   6.5546320  22.6403120  20.4778230   6.2995030  23.0399630
  21.9174330   6.6257090  23.3761040  31.3134950  10.6486700  20.5426490
  30.8516480   9.8773940  20.8713660  32.1260500  10.6752770  21.0478940
  21.2894610  10.5886410  22.8361140  21.5922650   9.6984150  22.6571360
  22.0338200  11.1456630  22.6083390  17.6818310   4.1153860  22.3085210
  18.2534420   3.3476060  22.3088850  17.6819850   4.4142620  21.3991820
  27.5398260  12.9344710  20.1630480  26.9209700  13.3902210  19.5924920
  28.3950040  13.0896170  19.7620180  26.7336510   8.9183700  21.7697520
  26.6644790   7.9773640  21.6086650  27.4956370   9.0085110  22.3420090
  23.7354420   3.0666080  21.7909070  24.2432640   3.5647050  22.4314090
  24.2667660   2.2901280  21.6148430  28.4061610   7.8183950  17.5562390
  27.7878880   8.2833400  16.9925110  28.9184860   8.5111430  17.9731900
  23.2693370   7.3459820  24.2345990  22.9362750   7.9728740  24.8767060
  23.4460050   7.8721700  23.4547660  22.4812470   9.3140620  26.0495170
  23.0986470   9.9891700  25.7679620  21.6205590   9.7228600  25.9582670
  17.7744810   8.5040480  14.9302020  17.3972790   8.9927580  14.1986920
  18.0317880   9.1765760  15.5608550  33.3990060  10.7780030  23.9649810
  32.7153580  11.4479140  23.9566480  33.9384350  10.9760680  23.1994670
  32.2294220   9.3440380  17.7685160  32.1190550   8.4014710  17.8934580
  32.2262470   9.7056020  18.6547920  30.3334240   7.5254000  24.0077600
  30.7503030   7.3114110  23.1731060  31.0574060   7.7826790  24.5786220
  27.7714500   4.9705700  17.1247650  26.8443780   4.9043080  17.3536120
  27.9239320   5.9085830  17.0102890  34.2796340   5.9241220  24.0993840
  33.4514970   5.9934310  23.6243970  34.8746820   6.5095530  23.6309670
  31.8011790   6.5326000  17.6282900  31.1824210   6.1945550  16.9809200
  31.7836240   5.8885760  18.3362090  31.2438350   2.7110540  25.0448710
  30.8309530   3.5364250  25.2988700  30.5114300   2.1255580  24.8525070
  23.3771140   5.4970440  19.9067380  22.9728140   4.7847690  19.4113280
  23.4634260   5.1523680  20.7955420  23.8452840   9.1838000  22.0706590
  23.5481130   8.5783470  21.3914370  24.7952660   9.2215310  21.9595950
  22.0899760   2.2713650  23.6866420  22.6414350   2.3808990  22.9119670
  22.6043270   2.6451250  24.4021650  22.9371270   8.9219690  28.7214390
  22.0399800   9.1459660  28.9687790  22.9624140   9.0454630  27.7725790
  29.9776490   5.7712810  14.6355650  30.4169770   4.9335240  14.4893470
  30.6904910   6.4042210  14.7219790  21.7642490   5.7933010  27.2971760
  21.6250260   6.6655810  27.6659160  20.8823850   5.4505820  27.1519700
  28.0871870  10.7108880  18.6036890  28.5267780  11.4533210  18.1892280
  28.0258760  10.9535450  19.5275850  23.5622840  11.7354710  29.5056910
  23.5338270  12.1397660  28.6385340  23.3987810  10.8065070  29.3428510
  20.0775770   4.3915420  17.4074030  19.9573370   5.1177510  16.7955300
  19.7676660   3.6218330  16.9301940  35.5137660  12.5181810  30.8021080
  35.9897380  12.9964700  31.4810160  36.1344820  12.4499300  30.0766580
  17.7161140   7.5630560  23.2142670  17.7941560   7.6979330  22.2698390
  18.3302820   6.8546450  23.4070790  18.9608770   9.2630750  19.6248850
  18.5536850   9.4045340  18.7702450  19.8521780   8.9790910  19.4220060
  34.9170910   9.7094660  27.9621090  35.0433970   9.4706540  27.0438270
  34.9592290   8.8779200  28.4343170  30.7542050  13.6978000  15.9599900
  30.5943190  13.4080940  16.8581730  30.5888760  12.9218130  15.4245130
  23.2330430  13.4776530  17.7371520  23.0572910  12.5612070  17.5239320
  22.3786170  13.8363820  17.9769320  30.4568180  11.2065560  14.5197900
  29.7633340  11.2042850  13.8600180  31.1991040  10.7824880  14.0892070
  30.0218110  12.8328270  18.5946390  30.4775060  12.0517650  18.9085010
  30.3610630  13.5435090  19.1387570  17.7720660   8.6044730  25.7537130
  17.9351700   8.1350090  24.9356500  18.2373110   8.0968290  26.4185970
  28.9263460   3.3229710  29.6228470  29.2516870   2.4893460  29.2830700
  29.7143790   3.8458230  29.7706800  22.3353650   2.8584060  18.5178950
  22.1094570   2.6421230  19.4225570  21.5546180   3.2912520  18.1724920
  29.5651410   2.8647430  17.1169600  28.9660300   3.5883230  16.9333220
  30.1131020   2.8024210  16.3346050  24.7752860   3.7569640  29.1839220
  24.6796460   2.8164370  29.0339620  25.6184840   3.9784710  28.7887290
  17.3950680   2.0331890  12.5805800  17.3125350   2.9762650  12.7220790
  17.0433740   1.8906800  11.7018150  28.7571420   4.0916720  23.2423660
  28.0252540   4.6003530  23.5913760  28.3595760   3.2746700  22.9412440
  25.2568960   1.7683000  14.6382910  25.3781780   1.7269480  15.5868730
  24.8717470   2.6307150  14.4829640  24.2690460   4.0784140  14.0366210
  23.7007360   3.6302390  13.4102120  24.9779460   4.4376920  13.5031360
  19.3459640   7.9796160  27.9132940  18.9614430   7.3389830  28.5115900
  19.6571830   8.6832280  28.4827670  25.4956780   4.8272700  23.3941560
  25.8626910   4.3531270  24.1402900  25.3061840   5.7014270  23.7349900
  23.2856150   3.8681340  25.7125770  22.9813220   4.7473320  25.9376130
  24.2402610   3.9281130  25.7483210  21.8137940   8.0742330  16.3092620
  21.0400200   7.5339950  16.1491340  22.5432570   7.5548940  15.9710380
  32.5725920   7.0707690  22.1019010  33.2925040   7.5662980  21.7115120
  32.3707740   6.3925580  21.4572880  27.9544720   7.1416750  27.9888010
  27.8882030   6.2212420  27.7345600  27.3249860   7.2392190  28.7032650
  30.7484250   2.8365300  14.5410560  31.6363870   3.1482530  14.3661900
  30.7189340   1.9637550  14.1491140  21.8575340   7.7422710  19.9471430
  22.3754010   6.9390970  19.8928320  21.4059360   7.6801850  20.7888260
  26.7444840   9.0088990  15.2198730  27.0860540   9.7531220  14.7242050
  25.9157550   9.3220110  15.5823560  19.3419880   4.7084080  26.8597130
  18.9834820   5.3737930  27.4470470  19.0474440   3.8767630  27.2309750
  22.5433000   5.1668320  29.7436680  22.2433140   5.3125500  28.8464500
  23.3144240   4.6073610  29.6510070  27.8861450   9.9637320  27.7391810
  27.9005990   9.0318280  27.5210720  27.1786550  10.0497080  28.3781580
  33.0198520   4.1477140  14.0090420  32.9362240   4.5791360  13.1586860
  33.7392710   4.6075490  14.4417240  34.0972660   6.6044660  27.0860390
  33.3720850   7.1973440  26.8889780  34.6248120   6.5968200  26.2873760
  34.0485770  11.0019400  16.7372550  33.4061930  10.3475020  17.0116270
  33.6616430  11.4074490  15.9613220  29.6272250   8.3304830  20.5844240
  29.9796070   7.7332960  19.9245610  28.7434580   8.0049060  20.7552490
  25.7135530   9.0902520  17.9914650  26.4006660   9.6371730  18.3722240
  24.9267950   9.6343250  18.0264260  17.8527930   4.7075340  13.4831730
  18.7222780   4.9900140  13.7667650  17.3618250   5.5211210  13.3680540
  25.0162740   6.0948550  17.6040010  25.4725520   6.9053800  17.8300200
  24.6650950   5.7771690  18.4358500  27.3195350  11.6054890  24.8332310
  27.9637570  11.8114270  25.5105730  27.6824790  10.8443290  24.3803160
  28.5927430   9.6087240  23.5509760  29.2349660   8.9080400  23.6641930
  29.1176780  10.3885680  23.3706650  32.4383150   9.8935860  13.2748900
  32.2120730   9.1766300  13.8673540  32.0479350   9.6448300  12.4370650
  30.3665050  10.4082140  26.7545820  30.7021290  10.9948830  27.4323740
  29.4465390  10.2774850  26.9843610  18.2199180  13.9202720  14.0493360
  18.5796820  14.5192060  13.3950630  18.0791520  14.4662610  14.8228390
  32.0199400   7.8107800  14.9363060  31.7321100   8.2720490  15.7240940
  32.8151570   7.3505570  15.2047280  18.2041040  12.1857580  28.5235760
  18.3132160  11.2452320  28.3831150  17.5521600  12.4512330  27.8749490
  26.1953630  10.4573470  29.9233880  25.8750500   9.7382710  30.4679570
  25.5211990  11.1328540  29.9969940  24.2367800  11.3033920  14.8667030
  24.2277900  12.0363610  14.2511540  23.3166160  11.0565500  14.9593990
  19.8374440   6.5248810  15.6113790  19.2302390   7.2647710  15.6209090
  20.3123790   6.6148170  14.7851990  27.2227400  11.3662160  13.5292220
  27.3239380  11.1626150  12.5994200  26.3229140  11.1120440  13.7340000
  26.3709220   3.3439220  25.5108650  26.8694470   3.8185040  26.1760500
  26.5132170   2.4202740  25.7178680  25.8645510  13.8848480  18.2239890
  26.1187010  13.8469870  17.3019260  24.9157990  13.7581810  18.2168140
  31.8698090   4.8040360  19.7998400  30.9288230   4.8190590  19.9746090
  32.1842160   4.0176320  20.2458700  21.8479730   6.4859960  13.3602360
  22.6143000   6.3741320  13.9227790  21.9254420   5.7897930  12.7079130
  20.5426490   3.9185030  14.0435250  20.6230080   2.9712540  14.1552650
  21.4346240   4.2491910  14.1495910  33.8723670  11.9749210  21.4752660
  33.9971090  12.7980380  21.9476470  34.7389230  11.7639940  21.1276810
  21.3441200  14.0680420  21.1469790  22.0803680  13.5195880  21.4178360
  21.7282120  14.9336430  21.0075780  18.2286680  10.1353990  17.0211300
  17.3026460  10.3775130  17.0116710  18.6943110  10.9628250  16.8996050
  20.3499480  13.2526490  30.3355370  21.1512210  13.5738540  30.7490770
  19.8351300  12.8922070  31.0575280  24.4543510  13.2410730  12.9695360
  25.2472120  13.5299560  12.5177150  23.9347860  12.8102900  12.2907840
  29.1864110   9.3606360  30.2830780  28.5802270   9.3837960  29.5426530
  28.8818220   8.6289400  30.8198030  30.6164480  13.0886650  28.8940190
  31.5686230  13.0044670  28.8440430  30.4692700  13.7528360  29.5673980
  33.5073680  12.4680860  14.3932100  33.2215190  12.0546000  13.5786280
  33.3093230  13.3968570  14.2732620  18.0697290   5.7399950  29.2791420
  18.5736310   5.1607230  29.8507650  17.3304710   6.0240180  29.8167790
  24.9720910   8.4614140  12.8337710  24.8671550   7.8466490  13.5599090
  24.8045130   7.9380030  12.0500720  25.1235230   7.1470940  28.8126940
  24.3580900   7.7155940  28.7281610  25.3051190   6.8547150  27.9195170
  28.2123640   7.5234170  13.4379700  27.6633740   7.9703470  14.0822440
  28.8342900   7.0183420  13.9617370  32.2658580   8.8776270  29.3701960
  33.0068050   9.2152030  28.8669420  31.5031260   9.0468330  28.8171730
  20.1020370   3.8829540  30.1741490  20.1425710   3.5843410  31.0826720
  20.9565870   4.2837150  30.0149010  23.8798760   6.4825090  15.3345000
  24.3015180   6.3164960  16.1776390  24.0049600   5.6725320  14.8400140
  22.0426180   2.4621640  28.1415980  21.5122640   1.9712590  27.5139320
  22.7114250   2.8905840  27.6073910  26.3926400   5.5062700  12.5822100
  26.9132060   4.7911720  12.2163250  27.0394800   6.1448570  12.8822610
  30.9404240   6.9291100  27.9057170  31.3545260   7.0836180  28.7547590
  30.0055240   7.0546320  28.0682950  31.4126410   4.2687260  29.9096320
  31.9947180   3.5139580  29.8216800  31.5888180   4.7994700  29.1327800
  25.7019470   6.8811580  25.8753100  26.1207580   7.7244310  25.7029340
  24.7828100   7.0183620  25.6459880  28.0383370   4.6127760  27.2590940
  28.1579580   4.0168900  27.9985780  28.8977370   4.6497450  26.8392240
  30.3771270   5.1664950  25.8353450  29.8506490   5.6907570  25.2318590
  30.7202610   5.7992340  26.4663180  22.7757660   2.5558320  12.2803160
  22.5746720   1.6925680  12.6416500  22.6049710   2.4691680  11.3424760
  23.5526890  13.1864590  26.9910830  23.0147980  13.9110650  26.6719530
  23.8060850  12.7094930  26.2008170  26.4089100  14.4215800  27.2497480
  26.3347800  15.3250940  27.5569850  25.5067940  14.1027700  27.2219550
  26.9574430  13.5874310  14.8723840  27.8525220  13.9259280  14.8942600
  26.9892060  12.8653720  14.2448120  20.5970590   8.9601360  13.1010840
  21.0345460   9.5031030  13.7568420  21.0818320   8.1348310  13.1107180
  17.8116390  11.7490390  20.5531100  18.1419400  10.8811450  20.3209740
  18.2407390  11.9548910  21.3836060  22.4078310  10.0799400  18.2133070
  22.1073850   9.9564370  19.1136980  22.3015800   9.2207990  17.8048800
  18.3006600  12.6160980  23.2912730  17.8637590  12.7961780  24.1236880
  18.8684280  13.3735600  23.1494450  35.1770230   9.8595800  12.9159750
  34.3463190   9.9272450  13.3866980  35.3542060  10.7499920  12.6126610
  34.6326690   6.6043280  15.4193950  35.3945600   7.1739930  15.5253640
  34.6481060   6.0370480  16.1902260  18.1331030   5.1281210  19.6501610
  17.4779870   4.8592850  19.0061310  18.9708980   5.0185690  19.2003590
  35.6386660   7.4593380  20.2635880  36.0095490   6.6760700  19.8571850
  36.2788590   8.1482480  20.0853180  32.6220420   8.8429960  25.6766200
  31.8080260   9.2727120  25.9391990  33.0294620   9.4548370  25.0635250
  34.6845860   6.8977650  12.5766470  34.9594700   7.8056530  12.4485690
  34.4956600   6.8340180  13.5128460  34.5811200   4.8346640  17.5695900
  34.2054800   4.0674570  17.1377190  33.8514320   5.2169340  18.0570830
  19.1706960   5.5133780  24.1904950  19.5380000   5.4261180  25.0700970
  18.6017780   4.7500330  24.0911810  33.9710820   3.9818160  27.2035420
  33.7396910   3.7530910  26.3033370  34.2315370   4.9017710  27.1580310
  18.7222960   2.4242870  28.0963370  17.8279010   2.3909630  28.4357080
  19.2620510   2.6229660  28.8614620  17.3469110   2.3380140  15.5926940
  16.4433190   2.6010340  15.4178600  17.8309730   2.6091310  14.8126900
  33.8562160   3.0604130  20.8703140  34.3799640   2.5666780  20.2393310
  34.4421580   3.1954490  21.6150710  34.0351880   3.1444000  24.3922690
  33.0854590   3.1107540  24.5067680  34.2164890   4.0544110  24.1572460
  20.5859040  10.0266470  29.3525100  20.5428670   9.6559380  30.2339560
  20.7170050  10.9644040  29.4926920  24.2865070  11.5826060  24.9534820
  24.0456430  11.8500620  24.0665340  25.2267710  11.7531790  25.0085680
  20.4247070  12.9728720  26.4722880  19.8307390  12.8413420  27.2112920
  20.4170910  12.1366860  26.0064980  20.0559300  10.3387100  25.4230920
  19.3293360   9.7192390  25.3556870  20.1168450  10.7327710  24.5529000
  23.6604400  12.5532100  22.2080330  24.1769420  11.9419460  21.6828590
  24.3101780  13.0560880  22.6991340  26.3999900  13.4440590  23.0349310
  26.6877710  13.1894890  22.1582320  26.9123120  12.8917950  23.6254880
  18.3389300  13.6561490  18.6327680  18.1711340  13.0232170  19.3309570
  17.4723810  13.8620890  18.2821870  19.9452000  12.3494720  16.0777820
  19.4199620  12.7302750  15.3739780  19.8696580  12.9745490  16.7987530
  22.5444970  14.2977100  14.9527070  23.2763790  14.0136380  14.4050960
  22.8038640  14.0590380  15.8426450  21.7059760  10.4141830  14.9573400
  21.0768640  10.8826930  15.5059230  21.8207590   9.5691050  15.3919590
  33.0349820  13.5926550  30.2258550  33.8275140  13.0975780  30.0184510
  33.3282970  14.2716690  30.8334160  27.2927520   6.2426510   2.9883870
  26.5169620   5.7626950   3.2782440  27.9440450   5.5632160   2.8140030
  21.3093350   6.5546320   3.8659630  20.4778230   6.2995030   4.2656140
  21.9174330   6.6257090   4.6017550  31.3134950  10.6486700   1.7683000
  30.8516480   9.8773940   2.0970170  32.1260500  10.6752770   2.2735450
  21.2894610  10.5886410   4.0617650  21.5922650   9.6984150   3.8827870
  22.0338200  11.1456630   3.8339900  17.6818310   4.1153860   3.5341720
  18.2534420   3.3476060   3.5345360  17.6819850   4.4142620   2.6248330
  26.7336510   8.9183700   2.9954030  26.6644790   7.9773640   2.8343160
  27.4956370   9.0085110   3.5676600  23.7354420   3.0666080   3.0165580
  24.2432640   3.5647050   3.6570600  24.2667660   2.2901280   2.8404940
  23.2693370   7.3459820   5.4602500  22.9362750   7.9728740   6.1023570
  23.4460050   7.8721700   4.6804170  22.4812470   9.3140620   7.2751680
  23.0986470   9.9891700   6.9936130  21.6205590   9.7228600   7.1839180
  33.3990060  10.7780030   5.1906320  32.7153580  11.4479140   5.1822990
  33.9384350  10.9760680   4.4251180  30.9348800  12.6224160   3.9051500
  30.9475960  12.2186450   3.0373760  30.3824020  13.3971450   3.8012930
  30.3334240   7.5254000   5.2334110  30.7503030   7.3114110   4.3987570
  31.0574060   7.7826790   5.8042730  34.2796340   5.9241220   5.3250350
  33.4514970   5.9934310   4.8500480  34.8746820   6.5095530   4.8566180
  31.2438350   2.7110540   6.2705220  30.8309530   3.5364250   6.5245210
  30.5114300   2.1255580   6.0781580  23.8452840   9.1838000   3.2963100
  23.5481130   8.5783470   2.6170880  24.7952660   9.2215310   3.1852460
  22.0899760   2.2713650   4.9122930  22.6414350   2.3808990   4.1376180
  22.6043270   2.6451250   5.6278160  31.9338450  12.7569870   6.9586200
  31.4569010  13.5642060   6.7658810  31.2500240  12.1048200   7.1112410
  22.9371270   8.9219690   9.9470900  22.0399800   9.1459660  10.1944300
  22.9624140   9.0454630   8.9982300  21.7642490   5.7933010   8.5228270
  21.6250260   6.6655810   8.8915670  20.8823850   5.4505820   8.3776210
  23.5622840  11.7354710  10.7313420  23.5338270  12.1397660   9.8641850
  23.3987810  10.8065070  10.5685020  35.5137660  12.5181810  12.0277590
  35.9897380  12.9964700  12.7066670  36.1344820  12.4499300  11.3023090
  17.7161140   7.5630560   4.4399180  17.7941560   7.6979330   3.4954900
  18.3302820   6.8546450   4.6327300  34.9170910   9.7094660   9.1877600
  35.0433970   9.4706540   8.2694780  34.9592290   8.8779200   9.6599680
  28.7787650  13.4122660   7.7572410  29.2932320  13.3230670   8.5594840
  27.9356730  13.7582360   8.0500320  17.7720660   8.6044730   6.9793640
  17.9351700   8.1350090   6.1613010  18.2373110   8.0968290   7.6442480
  28.9263460   3.3229710  10.8484980  29.2516870   2.4893460  10.5087210
  29.7143790   3.8458230  10.9963310  24.7752860   3.7569640  10.4095730
  24.6796460   2.8164370  10.2596130  25.6184840   3.9784710  10.0143800
  28.7571420   4.0916720   4.4680170  28.0252540   4.6003530   4.8170270
  28.3595760   3.2746700   4.1668950  19.3459640   7.9796160   9.1389450
  18.9614430   7.3389830   9.7372410  19.6571830   8.6832280   9.7084180
  25.4956780   4.8272700   4.6198070  25.8626910   4.3531270   5.3659410
  25.3061840   5.7014270   4.9606410  23.2856150   3.8681340   6.9382280
  22.9813220   4.7473320   7.1632640  24.2402610   3.9281130   6.9739720
  32.5725920   7.0707690   3.3275520  33.2925040   7.5662980   2.9371630
  32.3707740   6.3925580   2.6829390  27.9544720   7.1416750   9.2144520
  27.8882030   6.2212420   8.9602110  27.3249860   7.2392190   9.9289160
  19.3419880   4.7084080   8.0853640  18.9834820   5.3737930   8.6726980
  19.0474440   3.8767630   8.4566260  22.5433000   5.1668320  10.9693190
  22.2433140   5.3125500  10.0721010  23.3144240   4.6073610  10.8766580
  27.8861450   9.9637320   8.9648320  27.9005990   9.0318280   8.7467230
  27.1786550  10.0497080   9.6038090  34.0972660   6.6044660   8.3116900
  33.3720850   7.1973440   8.1146290  34.6248120   6.5968200   7.5130270
  27.3195350  11.6054890   6.0588820  27.9637570  11.8114270   6.7362240
  27.6824790  10.8443290   5.6059670  28.5927430   9.6087240   4.7766270
  29.2349660   8.9080400   4.8898440  29.1176780  10.3885680   4.5963160
  30.3665050  10.4082140   7.9802330  30.7021290  10.9948830   8.6580250
  29.4465390  10.2774850   8.2100120  18.2041040  12.1857580   9.7492270
  18.3132160  11.2452320   9.6087660  17.5521600  12.4512330   9.1006000
  26.1953630  10.4573470  11.1490390  25.8750500   9.7382710  11.6936080
  25.5211990  11.1328540  11.2226450  26.3709220   3.3439220   6.7365160
  26.8694470   3.8185040   7.4017010  26.5132170   2.4202740   6.9435190
  33.8723670  11.9749210   2.7009170  33.9971090  12.7980380   3.1732980
  34.7389230  11.7639940   2.3533320  21.3441200  14.0680420   2.3726300
  22.0803680  13.5195880   2.6434870  21.7282120  14.9336430   2.2332290
  20.3499480  13.2526490  11.5611880  21.1512210  13.5738540  11.9747280
  19.8351300  12.8922070  12.2831790  29.1864110   9.3606360  11.5087290
  28.5802270   9.3837960  10.7683040  28.8818220   8.6289400  12.0454540
  30.6164480  13.0886650  10.1196700  31.5686230  13.0044670  10.0696940
  30.4692700  13.7528360  10.7930490  18.0697290   5.7399950  10.5047930
  18.5736310   5.1607230  11.0764160  17.3304710   6.0240180  11.0424300
  25.1235230   7.1470940  10.0383450  24.3580900   7.7155940   9.9538120
  25.3051190   6.8547150   9.1451680  32.2658580   8.8776270  10.5958470
  33.0068050   9.2152030  10.0925930  31.5031260   9.0468330  10.0428240
  20.1020370   3.8829540  11.3998000  20.1425710   3.5843410  12.3083230
  20.9565870   4.2837150  11.2405520  22.0426180   2.4621640   9.3672490
  21.5122640   1.9712590   8.7395830  22.7114250   2.8905840   8.8330420
  30.9404240   6.9291100   9.1313680  31.3545260   7.0836180   9.9804100
  30.0055240   7.0546320   9.2939460  31.4126410   4.2687260  11.1352830
  31.9947180   3.5139580  11.0473310  31.5888180   4.7994700  10.3584310
  25.7019470   6.8811580   7.1009610  26.1207580   7.7244310   6.9285850
  24.7828100   7.0183620   6.8716390  28.0383370   4.6127760   8.4847450
  28.1579580   4.0168900   9.2242290  28.8977370   4.6497450   8.0648750
  30.3771270   5.1664950   7.0609960  29.8506490   5.6907570   6.4575100
  30.7202610   5.7992340   7.6919690  23.5526890  13.1864590   8.2167340
  23.0147980  13.9110650   7.8976040  23.8060850  12.7094930   7.4264680
  26.4089100  14.4215800   8.4753990  26.3347800  15.3250940   8.7826360
  25.5067940  14.1027700   8.4476060  17.8116390  11.7490390   1.7787610
  18.1419400  10.8811450   1.5466250  18.2407390  11.9548910   2.6092570
  18.3006600  12.6160980   4.5169240  17.8637590  12.7961780   5.3493390
  18.8684280  13.3735600   4.3750960  33.9368780  12.1177980   8.8046550
  33.3370770  12.1770540   8.0610470  34.0662680  11.1782960   8.9343400
  32.6220420   8.8429960   6.9022710  31.8080260   9.2727120   7.1648500
  33.0294620   9.4548370   6.2891760  19.1706960   5.5133780   5.4161460
  19.5380000   5.4261180   6.2957480  18.6017780   4.7500330   5.3168320
  33.9710820   3.9818160   8.4291930  33.7396910   3.7530910   7.5289880
  34.2315370   4.9017710   8.3836820  18.7222960   2.4242870   9.3219880
  17.8279010   2.3909630   9.6613590  19.2620510   2.6229660  10.0871130
  33.8562160   3.0604130   2.0959650  34.3799640   2.5666780   1.4649820
  34.4421580   3.1954490   2.8407220  34.0351880   3.1444000   5.6179200
  33.0854590   3.1107540   5.7324190  34.2164890   4.0544110   5.3828970
  20.5859040  10.0266470  10.5781610  20.5428670   9.6559380  11.4596070
  20.7170050  10.9644040  10.7183430  24.2865070  11.5826060   6.1791330
  24.0456430  11.8500620   5.2921850  25.2267710  11.7531790   6.2342190
  35.5469230  13.6020440   6.9801970  35.0527510  13.9989310   6.2629100
  34.9382520  12.9769650   7.3739250  20.4247070  12.9728720   7.6979390
  19.8307390  12.8413420   8.4369430  20.4170910  12.1366860   7.2321490
  33.2308680  14.2443860   4.2588710  32.7711650  14.9959670   3.8846730
  32.6021140  13.5250330   4.2003510  20.0559300  10.3387100   6.6487430
  19.3293360   9.7192390   6.5813380  20.1168450  10.7327710   5.7785510
  23.6604400  12.5532100   3.4336840  24.1769420  11.9419460   2.9085100
  24.3101780  13.0560880   3.9247850  26.3999900  13.4440590   4.2605820
  26.6877710  13.1894890   3.3838830  26.9123120  12.8917950   4.8511390
  26.4672260  14.3656690  11.6274020  27.3939570  14.1300960  11.6709980
  26.4522690  15.1928690  11.1460050  33.0349820  13.5926550  11.4515060
  33.8275140  13.0975780  11.2441020  33.3282970  14.2716690  12.0590670
  10.3865990  60.7877960  57.4305070  10.3060040  59.8732570  57.1596780
   9.9730410  61.2845030  56.7244780   8.5184030  62.5656980  59.3114340
   7.7426130  62.0857420  59.6012910   9.1696960  61.8862630  59.1370500
   8.9898190  58.0484550  59.5453430   9.3663010  57.1756430  59.4327100
   8.8917700  58.3843250  58.6543870   3.1203200  56.4210180  55.0070870
   3.2269950  57.3213910  55.3139630   2.2095560  56.3728150  54.7165520
  12.7722310  55.5434990  56.4781770  13.5931930  55.0531560  56.5207250
  12.8056390  56.1332650  57.2313610   4.9610930  59.3896550  59.3396050
   5.4689150  59.8877520  59.9801070   5.4924170  58.6131750  59.1635410
   9.6318120  64.1414420  55.1049370   9.0135390  64.6063870  54.5412090
  10.1441370  64.8341900  55.5218880  13.0083790  57.4835370  59.2509310
  12.3039360  57.7720260  59.8312420  13.3695950  58.2935480  58.8908870
  16.0770710  56.9290160  59.6418520  15.1295620  56.9629140  59.7733950
  16.4020700  57.7429110  60.0267880   6.6090250  53.2287340  57.9374510
   6.9165230  52.6734230  57.2210010   5.6790950  53.3631800  57.7547500
   8.9971010  61.2936170  54.6734630   8.0700290  61.2273550  54.9023100
   9.1495830  62.2316300  54.5589870   8.9840090  57.5653170  51.6701790
   8.0443760  57.7267130  51.7554250   9.3023350  58.2838850  51.1237780
  13.0268300  62.8556470  55.1769880  12.4080720  62.5176020  54.5296180
  13.0092750  62.2116230  55.8849070   4.6027650  61.8200910  57.4554360
   4.1984650  61.1078160  56.9600260   4.6890770  61.4754150  58.3442400
  11.2033000  62.0943280  52.1842630  11.6426280  61.2565710  52.0380450
  11.9161420  62.7272680  52.2706770  14.7850140  53.3486090  50.4983670
  14.4722800  53.4412920  51.3982740  15.5462610  53.9267120  50.4481100
   3.7695940  54.0580960  58.3384680   3.3264090  54.8390500  58.0069200
   4.3280930  54.3810850  59.0455620   6.8854760  53.6791660  53.2190510
   6.2608940  53.6751530  53.9443820   6.7984880  52.8122620  52.8226480
   5.8071840  54.6028290  60.1974280   6.1044170  55.5091120  60.1166300
   6.3557400  54.1147070  59.5833850   3.5610160  59.1814530  56.0665930
   3.3351080  58.9651700  56.9712550   2.7802690  59.6142990  55.7211900
  10.7907920  59.1877900  54.6656580  10.1916810  59.9113700  54.4820200
  11.3387530  59.1254680  53.8833030   9.3972790  57.8241440  56.6959860
   9.7902360  58.1413640  55.8828550   9.7589640  56.9453320  56.8104380
   6.4205320  57.0901390  59.1963130   6.4241380  56.6491340  58.3467670
   7.3156440  57.4118720  59.3034950   6.4825470  58.0913470  52.1869890
   6.6038290  58.0499950  53.1355710   6.0973980  58.9537620  52.0316620
   5.4946970  60.4014610  51.5853190   4.9263870  59.9532860  50.9589100
   6.2035970  60.7607390  51.0518340   3.0394450  64.3972800  53.8579600
   2.2656710  63.8570420  53.6978320   3.7689080  63.8779410  53.5197360
  13.7982430  63.3938160  59.6505990  14.5181550  63.8893450  59.2602100
  13.5964250  62.7156050  59.0059860   9.2592370  54.7876120  53.7935380
   8.4456980  54.2889290  53.7180690   9.0654320  55.6274370  53.3771730
  11.9740760  59.1595770  52.0897540  12.8620380  59.4713000  51.9148880
  11.9445850  58.2868020  51.6978120   3.0831850  64.0653180  57.4958410
   3.6010520  63.2621440  57.4415300   2.6315870  64.0032320  58.3375240
  14.2455030  60.4707610  51.5577400  14.1618750  60.9021830  50.7073840
  14.9649220  60.9305960  51.9904220  10.8528760  64.6535300  58.1331220
  11.2052580  64.0563430  57.4732590   9.9691090  64.3279530  58.3039470
   6.2419250  62.4179020  55.1526990   6.6982030  63.2284270  55.3787180
   5.8907460  62.1002160  55.9845480  13.2455910  64.1338270  52.4850040
  12.9577610  64.5950960  53.2727920  14.0408080  63.6736040  52.7534260
  14.0025770  55.9687040  53.6445220  13.3738930  56.0732710  52.9303450
  13.5077690  56.1883820  54.4339100   5.9709800  58.2472990  55.0603100
   5.2625950  58.7159330  55.5016710   6.2554280  57.5895000  55.6948290
  10.0025230  54.9723650  56.4998890   9.8793010  54.9909780  55.5508400
  10.9509790  55.0202590  56.6197290   4.1744820  56.5558070  52.4353810
   5.0235350  56.9928220  52.3694000   3.8076090  56.8678330  53.2625870
  13.0954600  61.1270830  57.3485380  12.1544740  61.1421060  57.5233070
  13.4098670  60.3406790  57.7945680   3.0736240  62.8090430  50.9089340
   3.8399510  62.6971790  51.4714770   3.1510930  62.1128400  50.2566110
   1.7683000  60.2415500  51.5922230   1.8486590  59.2943010  51.7039630
   2.6602750  60.5722380  51.6982890   6.1977420  64.7844610  50.3824690
   6.0928060  64.1696960  51.1086070   6.0301640  64.2610500  49.5987700
   9.4380150  63.8464640  50.9866680   8.8890250  64.2933940  51.6309420
  10.0599410  63.3413890  51.5104350   5.1055270  62.8055560  52.8831980
   5.5271690  62.6395430  53.7263370   5.2306110  61.9955790  52.3887120
   7.6182910  61.8293170  50.1309080   8.1388570  61.1142190  49.7650230
   8.2651310  62.4679040  50.4309590   4.0014170  58.8788790  49.8290140
   3.8003230  58.0156150  50.1903480   3.8306220  58.7922150  48.8911740
  11.4802480  53.6897020  52.3577020  11.7604770  52.8464920  52.7136440
  10.7068210  53.9220130  52.8715770   2.7996970  55.9789410  49.8168020
   3.1022870  55.9856840  48.9087170   3.5391560  55.6287270  50.3135680
   6.0181900  54.9224030  50.8024220   5.6703900  54.2448020  50.2226670
   6.2194670  54.4613540  51.6167610  15.8583200  62.9273750  52.9680930
  16.6202110  63.4970400  53.0740620  15.8737570  62.3600950  53.7389240
  16.8643170  63.7823850  57.8122860  17.2352000  62.9991170  57.4058830
  17.5045100  64.4712950  57.6340160  15.9102370  63.2208120  50.1253450
  16.1851210  64.1287000  49.9972670  15.7213110  63.1570650  51.0615440
  12.3077980  56.2452970  51.4207080  12.7262860  56.0583950  50.5803740
  12.0014040  55.3932020  51.7310010  15.8067710  61.1577110  55.1182880
  15.4311310  60.3905040  54.6864170  15.0770830  61.5399810  55.6057810
  15.0818670  59.3834600  58.4190120  15.6056150  58.8897250  57.7880290
  15.6678090  59.5184960  59.1637690  14.5718640  58.6407950  54.3582530
  15.0677760  58.4078820  55.1431410  14.3734710  57.8019790  53.9420170
  16.0005800  57.2768900  56.8920210  15.8905080  57.1224940  57.8302480
  16.7613390  56.7489840  56.6495620  16.8896070  55.1076820  50.1326350
  17.8145380  54.9758000  49.9244640  16.8671860  55.1869640  51.0862800
  16.9634560  55.8787480  52.7583060  16.1686060  55.8132600  53.2875970
  17.1677840  56.8138120  52.7468410  13.3954490  54.2084360  59.2081890
  13.8362580  54.1529460  58.3603490  13.1262080  55.1242370  59.2792070
  15.2593060  53.8399600  57.2190710  15.1981460  52.8960820  57.0721730
  16.0385090  53.9479690  57.7644170   6.7287640  55.9248010  56.6748830
   5.9162150  55.5504900  56.3344710   7.2329280  55.1693090  56.9770020
  11.2312620  52.5890460  57.9131900  11.8341990  53.1610670  58.3880420
  10.4905610  53.1529900  57.6905800  14.3747220  52.9912020  53.1872180
  14.5697850  53.8895470  53.4539610  13.5877090  52.7599100  53.6805130
   2.5598980  54.3372790  52.2248490   3.0891740  53.5502590  52.0956440
   3.1927300  55.0163980  52.4584020   4.7536820  54.0747930  55.2793880
   4.1239560  53.3735240  55.4464010   4.2141960  54.8352060  55.0627040
  10.3865990  60.7877960  38.6561580  10.3060040  59.8732570  38.3853290
   9.9730410  61.2845030  37.9501290   8.5184030  62.5656980  40.5370850
   7.7426130  62.0857420  40.8269420   9.1696960  61.8862630  40.3627010
   2.5349860  62.8776790  41.4146610   1.7034740  62.6225500  41.8143120
   3.1430840  62.9487560  42.1504530   8.9898190  58.0484550  40.7709940
   9.3663010  57.1756430  40.6583610   8.8917700  58.3843250  39.8800380
   3.1203200  56.4210180  36.2327380   3.2269950  57.3213910  36.5396140
   2.2095560  56.3728150  35.9422030  12.7722310  55.5434990  37.7038280
  13.5931930  55.0531560  37.7463760  12.8056390  56.1332650  38.4570120
   4.9610930  59.3896550  40.5652560   5.4689150  59.8877520  41.2057580
   5.4924170  58.6131750  40.3891920  17.0621860  57.5601740  44.2681910
  16.3574030  57.9483450  43.7497020  17.3279780  58.2552030  44.8702840
   3.2447030  54.0295110  44.8315980   3.2465470  54.5467500  44.0261880
   2.4151340  53.5525290  44.8085910   9.6318120  64.1414420  36.3305880
   9.0135390  64.6063870  35.7668600  10.1441370  64.8341900  36.7475390
   4.4949880  63.6690290  43.0089480   4.1619260  64.2959210  43.6510550
   4.6716560  64.1952170  42.2291150  13.0083790  57.4835370  40.4765820
  12.3039360  57.7720260  41.0568930  13.3695950  58.2935480  40.1165380
   2.9262360  55.7405070  42.8386430   3.2679170  56.5847120  42.5440300
   1.9878170  55.8888810  42.9551770  16.0770710  56.9290160  40.8675030
  15.1295620  56.9629140  40.9990460  16.4020700  57.7429110  41.2524390
   6.6090250  53.2287340  39.1631020   6.9165230  52.6734230  38.4466520
   5.6790950  53.3631800  38.9804010  11.5590750  63.8484470  42.7821090
  11.9759540  63.6344580  41.9474550  12.2830570  64.1057260  43.3529710
   8.9971010  61.2936170  35.8991140   8.0700290  61.2273550  36.1279610
   9.1495830  62.2316300  35.7846380   8.9840090  57.5653170  32.8958300
   8.0443760  57.7267130  32.9810760   9.3023350  58.2838850  32.3494290
  15.5052850  62.2471690  42.8737330  14.6771480  62.3164780  42.3987460
  16.1003330  62.8326000  42.4053160  13.0268300  62.8556470  36.4026390
  12.4080720  62.5176020  35.7552690  13.0092750  62.2116230  37.1105580
  12.4694860  59.0341010  43.8192200  12.0566040  59.8594720  44.0732190
  11.7370810  58.4486050  43.6268560   4.6027650  61.8200910  38.6810870
   4.1984650  61.1078160  38.1856770   4.6890770  61.4754150  39.5698910
   3.3156270  58.5944120  42.4609910   3.8670860  58.7039460  41.6863160
   3.8299780  58.9681720  43.1765140  11.2033000  62.0943280  33.4099140
  11.6426280  61.2565710  33.2636960  11.9161420  62.7272680  33.4963280
   2.9899000  62.1163480  46.0715250   2.8506770  62.9886280  46.4402650
   2.1080360  61.7736290  45.9263190  14.7850140  53.3486090  31.7240180
  14.4722800  53.4412920  32.6239250  15.5462610  53.9267120  31.6737610
  15.9951430  58.0857590  47.7014320  15.3795700  58.5937260  47.1729780
  15.6747850  57.1855920  47.6440260   3.7695940  54.0580960  39.5641190
   3.3264090  54.8390500  39.2325710   4.3280930  54.3810850  40.2712130
   8.0565750  56.9249480  45.1676510   7.5945120  57.1332500  45.9796450
   7.6543860  56.1108830  44.8647180  13.0570260  58.1458430  46.2973170
  12.2063850  57.8464180  46.6182240  12.8972050  58.3900440  45.3856990
  10.1519970  59.6460180  48.3971960  10.4773380  58.8123930  48.0574190
  10.9400300  60.1688700  48.5450290   6.8854760  53.6791660  34.4447020
   6.2608940  53.6751530  35.1700330   6.7984880  52.8122620  34.0482990
   5.8071840  54.6028290  41.4230790   6.1044170  55.5091120  41.3422810
   6.3557400  54.1147070  40.8090360   3.5610160  59.1814530  37.2922440
   3.3351080  58.9651700  38.1969060   2.7802690  59.6142990  36.9468410
  10.7907920  59.1877900  35.8913090  10.1916810  59.9113700  35.7076710
  11.3387530  59.1254680  35.1089540   6.0009370  60.0800110  47.9582710
   5.9052970  59.1394840  47.8083110   6.8441350  60.3015180  47.5630780
   9.3972790  57.8241440  37.9216370   9.7902360  58.1413640  37.1085060
   9.7589640  56.9453320  38.0360890   7.7064960  56.5748750  49.1813230
   7.0163280  56.3820950  49.8159320   8.4497260  56.8583390  49.7137530
   9.9827930  60.4147190  42.0167150   9.2509050  60.9234000  42.3657250
   9.5852270  59.5977170  41.7155930   6.4205320  57.0901390  40.4219640
   6.4241380  56.6491340  39.5724180   7.3156440  57.4118720  40.5291460
   6.4825470  58.0913470  33.4126400   6.6038290  58.0499950  34.3612220
   6.0973980  58.9537620  33.2573130  10.4453840  55.8680870  41.4290090
  10.4626580  56.3189520  42.2731940  10.1969420  54.9686510  41.6423530
   5.4946970  60.4014610  32.8109700   4.9263870  59.9532860  32.1845610
   6.2035970  60.7607390  32.2774850  13.8724590  53.2813050  47.2676470
  14.1970360  52.5502710  47.7934450  13.9081100  52.9626690  46.3657460
   6.7213290  61.1503170  42.1685050   7.0883420  60.6761740  42.9146390
   6.5318350  62.0244740  42.5093390   4.5112660  60.1911810  44.4869260
   4.2069730  61.0703790  44.7119620   5.4659120  60.2511600  44.5226700
   3.0394450  64.3972800  35.0836110   2.2656710  63.8570420  34.9234830
   3.7689080  63.8779410  34.7453870  13.7982430  63.3938160  40.8762500
  14.5181550  63.8893450  40.4858610  13.5964250  62.7156050  40.2316370
   9.2592370  54.7876120  35.0191890   8.4456980  54.2889290  34.9437200
   9.0654320  55.6274370  34.6028240   9.1801230  63.4647220  46.7631500
   9.1138540  62.5442890  46.5089090   8.5506370  63.5622660  47.4776140
  11.9740760  59.1595770  33.3154050  12.8620380  59.4713000  33.1405390
  11.9445850  58.2868020  32.9234630   3.0831850  64.0653180  38.7214920
   3.6010520  63.2621440  38.6671810   2.6315870  64.0032320  39.5631750
   3.7689510  61.4898790  48.5180170   3.4689650  61.6355970  47.6207990
   4.5400750  60.9304080  48.4253560  14.2455030  60.4707610  32.7833910
  14.1618750  60.9021830  31.9330350  14.9649220  60.9305960  33.2160730
  15.3229170  62.9275130  45.8603880  14.5977360  63.5203910  45.6633270
  15.8504630  62.9198670  45.0617250  10.8528760  64.6535300  39.3587730
  11.2052580  64.0563430  38.6989100   9.9691090  64.3279530  39.5295980
   6.2419250  62.4179020  36.3783500   6.6982030  63.2284270  36.6043690
   5.8907460  62.1002160  37.2101990  13.2455910  64.1338270  33.7106550
  12.9577610  64.5950960  34.4984430  14.0408080  63.6736040  33.9790770
  10.6363740  57.0130100  44.0614170  11.0044560  56.1925310  44.3893740
   9.7761940  57.0731990  44.4769820  14.0025770  55.9687040  34.8701730
  13.3738930  56.0732710  34.1559960  13.5077690  56.1883820  35.6595610
   5.9709800  58.2472990  36.2859610   5.2625950  58.7159330  36.7273220
   6.2554280  57.5895000  36.9204800   7.5965730  59.6669690  44.2852140
   8.0950980  60.1415510  44.9503990   7.7388680  58.7433210  44.4922170
  10.0025230  54.9723650  37.7255400   9.8793010  54.9909780  36.7764910
  10.9509790  55.0202590  37.8453800   4.1744820  56.5558070  33.6610320
   5.0235350  56.9928220  33.5950510   3.8076090  56.8678330  34.4882380
  14.8032590  55.8837650  45.1280530  14.3006190  56.6243050  45.4674340
  15.6189250  56.2721650  44.8117320  13.0954600  61.1270830  38.5741890
  12.1544740  61.1421060  38.7489580  13.4098670  60.3406790  39.0202190
   3.0736240  62.8090430  32.1345850   3.8399510  62.6971790  32.6971280
   3.1510930  62.1128400  31.4822620   1.7683000  60.2415500  32.8178740
   1.8486590  59.2943010  32.9296140   2.6602750  60.5722380  32.9239400
   6.1977420  64.7844610  31.6081200   6.0928060  64.1696960  32.3342580
   6.0301640  64.2610500  30.8244210   6.3491740  63.4701410  47.5870430
   5.5837410  64.0386410  47.5025100   6.5307700  63.1777620  46.6938660
   9.4380150  63.8464640  32.2123190   8.8890250  64.2933940  32.8565930
  10.0599410  63.3413890  32.7360860   5.1055270  62.8055560  34.1088490
   5.5271690  62.6395430  34.9519880   5.2306110  61.9955790  33.6143630
   3.2682690  58.7852110  46.9159470   2.7379150  58.2943060  46.2882810
   3.9370760  59.2136310  46.3817400   7.6182910  61.8293170  31.3565590
   8.1388570  61.1142190  30.9906740   8.2651310  62.4679040  31.6566100
  12.1660750  63.2521570  46.6800660  12.5801770  63.4066650  47.5291080
  11.2311750  63.3776790  46.8426440  12.6382920  60.5917730  48.6839810
  13.2203690  59.8370050  48.5960290  12.8144690  61.1225170  47.9071290
   3.7554990  55.7514480  46.9956760   3.6611860  55.1335230  46.2707630
   3.1752380  56.4780770  46.7686670   6.5216430  54.3087720  44.0284150
   6.0733730  54.3311980  43.1829700   5.8881630  53.9106740  44.6254450
   6.9275980  63.2042050  44.6496590   7.3464090  64.0474780  44.4772830
   6.0084610  63.3414090  44.4203370   9.2639880  60.9358230  46.0334430
   9.3836090  60.3399370  46.7729270  10.1233880  60.9727920  45.6135730
  11.6027780  61.4895420  44.6096940  11.0763000  62.0138040  44.0062080
  11.9459120  62.1222810  45.2406670   4.0014170  58.8788790  31.0546650
   3.8003230  58.0156150  31.4159990   3.8306220  58.7922150  30.1168250
   6.0308650  57.4779580  47.2910250   6.6208340  57.1695430  47.9788070
   5.2128890  57.0059330  47.4470150  10.8502080  57.0945390  47.5243270
  10.1617600  56.4326930  47.4593260  11.5708100  56.6483660  47.9691730
  11.4802480  53.6897020  33.5833530  11.7604770  52.8464920  33.9392950
  10.7068210  53.9220130  34.0972280   2.7996970  55.9789410  31.0424530
   3.1022870  55.9856840  30.1343680   3.5391560  55.6287270  31.5392190
   6.0181900  54.9224030  32.0280730   5.6703900  54.2448020  31.4483180
   6.2194670  54.4613540  32.8424120  15.8583200  62.9273750  34.1937440
  16.6202110  63.4970400  34.2997130  15.8737570  62.3600950  34.9645750
  16.8643170  63.7823850  39.0379370  17.2352000  62.9991170  38.6315340
  17.5045100  64.4712950  38.8596670  15.9102370  63.2208120  31.3509960
  16.1851210  64.1287000  31.2229180  15.7213110  63.1570650  32.2871950
  12.3077980  56.2452970  32.6463590  12.7262860  56.0583950  31.8060250
  12.0014040  55.3932020  32.9566520  15.8067710  61.1577110  36.3439390
  15.4311310  60.3905040  35.9120680  15.0770830  61.5399810  36.8314320
  15.1967330  60.3048630  45.9778910  14.9653420  60.0761380  45.0776860
  15.4571880  61.2248180  45.9323800  13.6355400  55.5305060  48.7558610
  14.5125580  55.5388460  49.1392610  13.6476240  54.7935900  48.1450960
  15.0818670  59.3834600  39.6446630  15.6056150  58.8897250  39.0136800
  15.6678090  59.5184960  40.3894200  15.2608390  59.4674470  43.1666180
  14.3111100  59.4338010  43.2811170  15.4421400  60.3774580  42.9315950
  14.5718640  58.6407950  35.5839040  15.0677760  58.4078820  36.3687920
  14.3734710  57.8019790  35.1676680  16.0005800  57.2768900  38.1176720
  15.8905080  57.1224940  39.0558990  16.7613390  56.7489840  37.8752130
  14.3471520  53.2163030  44.5759720  14.9843740  53.8297170  44.9418910
  14.4946410  53.2523690  43.6308950  16.8896070  55.1076820  31.3582860
  17.8145380  54.9758000  31.1501150  16.8671860  55.1869640  32.3119310
  16.9634560  55.8787480  33.9839570  16.1686060  55.8132600  34.5132480
  17.1677840  56.8138120  33.9724920   7.7176000  54.3689220  47.4834820
   7.6564890  54.9611050  48.2330230   8.6576380  54.2615180  47.3385080
  10.3550560  54.0259280  47.1227110  10.9690970  54.3438570  46.4608190
  10.9000120  53.5407870  47.7422970  11.0958600  52.5891420  43.4496400
  10.2218440  52.9226530  43.2469330  10.9869350  52.1164600  44.2748270
  12.0030580  54.7962290  44.8338120  11.6743940  53.9814050  44.4539850
  12.9512880  54.7532100  44.7103810   8.8433420  53.5061260  42.3889310
   8.0605210  53.9806760  42.6686070   8.5496350  52.6016090  42.2802490
  13.3954490  54.2084360  40.4338400  13.8362580  54.1529460  39.5860000
  13.1262080  55.1242370  40.5048580  15.2593060  53.8399600  38.4447220
  15.1981460  52.8960820  38.2978240  16.0385090  53.9479690  38.9900680
   6.7287640  55.9248010  37.9005340   5.9162150  55.5504900  37.5601220
   7.2329280  55.1693090  38.2026530  11.2312620  52.5890460  39.1388410
  11.8341990  53.1610670  39.6136930  10.4905610  53.1529900  38.9162310
  14.3747220  52.9912020  34.4128690  14.5697850  53.8895470  34.6796120
  13.5877090  52.7599100  34.9061640   2.5598980  54.3372790  33.4505000
   3.0891740  53.5502590  33.3212950   3.1927300  55.0163980  33.6840530
   4.7536820  54.0747930  36.5050390   4.1239560  53.3735240  36.6720520
   4.2141960  54.8352060  36.2883550   4.8792380  53.3531910  48.9402880
   4.5976650  53.8565510  48.1763700   5.2612080  52.5553660  48.5745010
  11.4807840  52.7685490  49.5183350  11.3673290  53.0880100  50.4134870
  12.2977580  53.1698000  49.2220630  10.3865990  60.7877960  19.8818090
  10.3060040  59.8732570  19.6109800   9.9730410  61.2845030  19.1757800
   8.5184030  62.5656980  21.7627360   7.7426130  62.0857420  22.0525930
   9.1696960  61.8862630  21.5883520   2.5349860  62.8776790  22.6403120
   1.7034740  62.6225500  23.0399630   3.1430840  62.9487560  23.3761040
   8.9898190  58.0484550  21.9966450   9.3663010  57.1756430  21.8840120
   8.8917700  58.3843250  21.1056890   3.1203200  56.4210180  17.4583890
   3.2269950  57.3213910  17.7652650   2.2095560  56.3728150  17.1678540
  12.7722310  55.5434990  18.9294790  13.5931930  55.0531560  18.9720270
  12.8056390  56.1332650  19.6826630   4.9610930  59.3896550  21.7909070
   5.4689150  59.8877520  22.4314090   5.4924170  58.6131750  21.6148430
  17.0621860  57.5601740  25.4938420  16.3574030  57.9483450  24.9753530
  17.3279780  58.2552030  26.0959350   3.2447030  54.0295110  26.0572490
   3.2465470  54.5467500  25.2518390   2.4151340  53.5525290  26.0342420
   9.6318120  64.1414420  17.5562390   9.0135390  64.6063870  16.9925110
  10.1441370  64.8341900  17.9731900   4.4949880  63.6690290  24.2345990
   4.1619260  64.2959210  24.8767060   4.6716560  64.1952170  23.4547660
  13.0083790  57.4835370  21.7022330  12.3039360  57.7720260  22.2825440
  13.3695950  58.2935480  21.3421890   2.9262360  55.7405070  24.0642940
   3.2679170  56.5847120  23.7696810   1.9878170  55.8888810  24.1808280
  16.0770710  56.9290160  22.0931540  15.1295620  56.9629140  22.2246970
  16.4020700  57.7429110  22.4780900   6.6090250  53.2287340  20.3887530
   6.9165230  52.6734230  19.6723030   5.6790950  53.3631800  20.2060520
  11.5590750  63.8484470  24.0077600  11.9759540  63.6344580  23.1731060
  12.2830570  64.1057260  24.5786220   8.9971010  61.2936170  17.1247650
   8.0700290  61.2273550  17.3536120   9.1495830  62.2316300  17.0102890
   8.9840090  57.5653170  14.1214810   8.0443760  57.7267130  14.2067270
   9.3023350  58.2838850  13.5750800  15.5052850  62.2471690  24.0993840
  14.6771480  62.3164780  23.6243970  16.1003330  62.8326000  23.6309670
  13.0268300  62.8556470  17.6282900  12.4080720  62.5176020  16.9809200
  13.0092750  62.2116230  18.3362090  12.4694860  59.0341010  25.0448710
  12.0566040  59.8594720  25.2988700  11.7370810  58.4486050  24.8525070
   4.6027650  61.8200910  19.9067380   4.1984650  61.1078160  19.4113280
   4.6890770  61.4754150  20.7955420   3.3156270  58.5944120  23.6866420
   3.8670860  58.7039460  22.9119670   3.8299780  58.9681720  24.4021650
  11.2033000  62.0943280  14.6355650  11.6426280  61.2565710  14.4893470
  11.9161420  62.7272680  14.7219790   2.9899000  62.1163480  27.2971760
   2.8506770  62.9886280  27.6659160   2.1080360  61.7736290  27.1519700
  14.7850140  53.3486090  12.9496690  14.4722800  53.4412920  13.8495760
  15.5462610  53.9267120  12.8994120  15.9951430  58.0857590  28.9270830
  15.3795700  58.5937260  28.3986290  15.6747850  57.1855920  28.8696770
   3.7695940  54.0580960  20.7897700   3.3264090  54.8390500  20.4582220
   4.3280930  54.3810850  21.4968640   8.0565750  56.9249480  26.3933020
   7.5945120  57.1332500  27.2052960   7.6543860  56.1108830  26.0903690
  13.0570260  58.1458430  27.5229680  12.2063850  57.8464180  27.8438750
  12.8972050  58.3900440  26.6113500  10.1519970  59.6460180  29.6228470
  10.4773380  58.8123930  29.2830700  10.9400300  60.1688700  29.7706800
   6.8854760  53.6791660  15.6703530   6.2608940  53.6751530  16.3956840
   6.7984880  52.8122620  15.2739500   5.8071840  54.6028290  22.6487300
   6.1044170  55.5091120  22.5679320   6.3557400  54.1147070  22.0346870
   3.5610160  59.1814530  18.5178950   3.3351080  58.9651700  19.4225570
   2.7802690  59.6142990  18.1724920  10.7907920  59.1877900  17.1169600
  10.1916810  59.9113700  16.9333220  11.3387530  59.1254680  16.3346050
   6.0009370  60.0800110  29.1839220   5.9052970  59.1394840  29.0339620
   6.8441350  60.3015180  28.7887290   9.3972790  57.8241440  19.1472880
   9.7902360  58.1413640  18.3341570   9.7589640  56.9453320  19.2617400
   7.7064960  56.5748750  30.4069740   7.0163280  56.3820950  31.0415830
   8.4497260  56.8583390  30.9394040   9.9827930  60.4147190  23.2423660
   9.2509050  60.9234000  23.5913760   9.5852270  59.5977170  22.9412440
   6.4205320  57.0901390  21.6476150   6.4241380  56.6491340  20.7980690
   7.3156440  57.4118720  21.7547970   6.4825470  58.0913470  14.6382910
   6.6038290  58.0499950  15.5868730   6.0973980  58.9537620  14.4829640
  10.4453840  55.8680870  22.6546600  10.4626580  56.3189520  23.4988450
  10.1969420  54.9686510  22.8680040   5.4946970  60.4014610  14.0366210
   4.9263870  59.9532860  13.4102120   6.2035970  60.7607390  13.5031360
  13.8724590  53.2813050  28.4932980  14.1970360  52.5502710  29.0190960
  13.9081100  52.9626690  27.5913970   6.7213290  61.1503170  23.3941560
   7.0883420  60.6761740  24.1402900   6.5318350  62.0244740  23.7349900
   4.5112660  60.1911810  25.7125770   4.2069730  61.0703790  25.9376130
   5.4659120  60.2511600  25.7483210   3.0394450  64.3972800  16.3092620
   2.2656710  63.8570420  16.1491340   3.7689080  63.8779410  15.9710380
  13.7982430  63.3938160  22.1019010  14.5181550  63.8893450  21.7115120
  13.5964250  62.7156050  21.4572880   9.2592370  54.7876120  16.2448400
   8.4456980  54.2889290  16.1693710   9.0654320  55.6274370  15.8284750
   9.1801230  63.4647220  27.9888010   9.1138540  62.5442890  27.7345600
   8.5506370  63.5622660  28.7032650  11.9740760  59.1595770  14.5410560
  12.8620380  59.4713000  14.3661900  11.9445850  58.2868020  14.1491140
   3.0831850  64.0653180  19.9471430   3.6010520  63.2621440  19.8928320
   2.6315870  64.0032320  20.7888260   3.7689510  61.4898790  29.7436680
   3.4689650  61.6355970  28.8464500   4.5400750  60.9304080  29.6510070
  14.2455030  60.4707610  14.0090420  14.1618750  60.9021830  13.1586860
  14.9649220  60.9305960  14.4417240  15.3229170  62.9275130  27.0860390
  14.5977360  63.5203910  26.8889780  15.8504630  62.9198670  26.2873760
  10.8528760  64.6535300  20.5844240  11.2052580  64.0563430  19.9245610
   9.9691090  64.3279530  20.7552490   6.2419250  62.4179020  17.6040010
   6.6982030  63.2284270  17.8300200   5.8907460  62.1002160  18.4358500
  13.2455910  64.1338270  14.9363060  12.9577610  64.5950960  15.7240940
  14.0408080  63.6736040  15.2047280  10.6363740  57.0130100  25.2870680
  11.0044560  56.1925310  25.6150250   9.7761940  57.0731990  25.7026330
  14.0025770  55.9687040  16.0958240  13.3738930  56.0732710  15.3816470
  13.5077690  56.1883820  16.8852120   5.9709800  58.2472990  17.5116120
   5.2625950  58.7159330  17.9529730   6.2554280  57.5895000  18.1461310
   7.5965730  59.6669690  25.5108650   8.0950980  60.1415510  26.1760500
   7.7388680  58.7433210  25.7178680  10.0025230  54.9723650  18.9511910
   9.8793010  54.9909780  18.0021420  10.9509790  55.0202590  19.0710310
   4.1744820  56.5558070  14.8866830   5.0235350  56.9928220  14.8207020
   3.8076090  56.8678330  15.7138890  14.8032590  55.8837650  26.3537040
  14.3006190  56.6243050  26.6930850  15.6189250  56.2721650  26.0373830
  13.0954600  61.1270830  19.7998400  12.1544740  61.1421060  19.9746090
  13.4098670  60.3406790  20.2458700   3.0736240  62.8090430  13.3602360
   3.8399510  62.6971790  13.9227790   3.1510930  62.1128400  12.7079130
   1.7683000  60.2415500  14.0435250   1.8486590  59.2943010  14.1552650
   2.6602750  60.5722380  14.1495910   6.1977420  64.7844610  12.8337710
   6.0928060  64.1696960  13.5599090   6.0301640  64.2610500  12.0500720
   6.3491740  63.4701410  28.8126940   5.5837410  64.0386410  28.7281610
   6.5307700  63.1777620  27.9195170   9.4380150  63.8464640  13.4379700
   8.8890250  64.2933940  14.0822440  10.0599410  63.3413890  13.9617370
   5.1055270  62.8055560  15.3345000   5.5271690  62.6395430  16.1776390
   5.2306110  61.9955790  14.8400140   3.2682690  58.7852110  28.1415980
   2.7379150  58.2943060  27.5139320   3.9370760  59.2136310  27.6073910
   7.6182910  61.8293170  12.5822100   8.1388570  61.1142190  12.2163250
   8.2651310  62.4679040  12.8822610  12.1660750  63.2521570  27.9057170
  12.5801770  63.4066650  28.7547590  11.2311750  63.3776790  28.0682950
  12.6382920  60.5917730  29.9096320  13.2203690  59.8370050  29.8216800
  12.8144690  61.1225170  29.1327800   3.7554990  55.7514480  28.2213270
   3.6611860  55.1335230  27.4964140   3.1752380  56.4780770  27.9943180
   6.5216430  54.3087720  25.2540660   6.0733730  54.3311980  24.4086210
   5.8881630  53.9106740  25.8510960   6.9275980  63.2042050  25.8753100
   7.3464090  64.0474780  25.7029340   6.0084610  63.3414090  25.6459880
   9.2639880  60.9358230  27.2590940   9.3836090  60.3399370  27.9985780
  10.1233880  60.9727920  26.8392240  11.6027780  61.4895420  25.8353450
  11.0763000  62.0138040  25.2318590  11.9459120  62.1222810  26.4663180
   4.0014170  58.8788790  12.2803160   3.8003230  58.0156150  12.6416500
   3.8306220  58.7922150  11.3424760   6.0308650  57.4779580  28.5166760
   6.6208340  57.1695430  29.2044580   5.2128890  57.0059330  28.6726660
  10.8502080  57.0945390  28.7499780  10.1617600  56.4326930  28.6849770
  11.5708100  56.6483660  29.1948240  11.4802480  53.6897020  14.8090040
  11.7604770  52.8464920  15.1649460  10.7068210  53.9220130  15.3228790
   2.7996970  55.9789410  12.2681040   3.1022870  55.9856840  11.3600190
   3.5391560  55.6287270  12.7648700   6.0181900  54.9224030  13.2537240
   5.6703900  54.2448020  12.6739690   6.2194670  54.4613540  14.0680630
  15.8583200  62.9273750  15.4193950  16.6202110  63.4970400  15.5253640
  15.8737570  62.3600950  16.1902260  16.8643170  63.7823850  20.2635880
  17.2352000  62.9991170  19.8571850  17.5045100  64.4712950  20.0853180
  15.9102370  63.2208120  12.5766470  16.1851210  64.1287000  12.4485690
  15.7213110  63.1570650  13.5128460  12.3077980  56.2452970  13.8720100
  12.7262860  56.0583950  13.0316760  12.0014040  55.3932020  14.1823030
  15.8067710  61.1577110  17.5695900  15.4311310  60.3905040  17.1377190
  15.0770830  61.5399810  18.0570830  15.1967330  60.3048630  27.2035420
  14.9653420  60.0761380  26.3033370  15.4571880  61.2248180  27.1580310
  13.6355400  55.5305060  29.9815120  14.5125580  55.5388460  30.3649120
  13.6476240  54.7935900  29.3707470  15.0818670  59.3834600  20.8703140
  15.6056150  58.8897250  20.2393310  15.6678090  59.5184960  21.6150710
  15.2608390  59.4674470  24.3922690  14.3111100  59.4338010  24.5067680
  15.4421400  60.3774580  24.1572460  14.5718640  58.6407950  16.8095550
  15.0677760  58.4078820  17.5944430  14.3734710  57.8019790  16.3933190
  16.0005800  57.2768900  19.3433230  15.8905080  57.1224940  20.2815500
  16.7613390  56.7489840  19.1008640  14.3471520  53.2163030  25.8016230
  14.9843740  53.8297170  26.1675420  14.4946410  53.2523690  24.8565460
  16.8896070  55.1076820  12.5839370  17.8145380  54.9758000  12.3757660
  16.8671860  55.1869640  13.5375820  16.9634560  55.8787480  15.2096080
  16.1686060  55.8132600  15.7388990  17.1677840  56.8138120  15.1981430
   7.7176000  54.3689220  28.7091330   7.6564890  54.9611050  29.4586740
   8.6576380  54.2615180  28.5641590  10.3550560  54.0259280  28.3483620
  10.9690970  54.3438570  27.6864700  10.9000120  53.5407870  28.9679480
  11.0958600  52.5891420  24.6752910  10.2218440  52.9226530  24.4725840
  10.9869350  52.1164600  25.5004780  12.0030580  54.7962290  26.0594630
  11.6743940  53.9814050  25.6796360  12.9512880  54.7532100  25.9360320
   8.8433420  53.5061260  23.6145820   8.0605210  53.9806760  23.8942580
   8.5496350  52.6016090  23.5059000  13.3954490  54.2084360  21.6594910
  13.8362580  54.1529460  20.8116510  13.1262080  55.1242370  21.7305090
  15.2593060  53.8399600  19.6703730  15.1981460  52.8960820  19.5234750
  16.0385090  53.9479690  20.2157190   6.7287640  55.9248010  19.1261850
   5.9162150  55.5504900  18.7857730   7.2329280  55.1693090  19.4283040
  11.2312620  52.5890460  20.3644920  11.8341990  53.1610670  20.8393440
  10.4905610  53.1529900  20.1418820  14.3747220  52.9912020  15.6385200
  14.5697850  53.8895470  15.9052630  13.5877090  52.7599100  16.1318150
   2.5598980  54.3372790  14.6761510   3.0891740  53.5502590  14.5469460
   3.1927300  55.0163980  14.9097040   4.7536820  54.0747930  17.7306900
   4.1239560  53.3735240  17.8977030   4.2141960  54.8352060  17.5140060
   4.8792380  53.3531910  30.1659390   4.5976650  53.8565510  29.4020210
   5.2612080  52.5553660  29.8001520  11.4807840  52.7685490  30.7439860
  11.3673290  53.0880100  31.6391380  12.2977580  53.1698000  30.4477140
   8.5184030  62.5656980   2.9883870   7.7426130  62.0857420   3.2782440
   9.1696960  61.8862630   2.8140030   2.5349860  62.8776790   3.8659630
   1.7034740  62.6225500   4.2656140   3.1430840  62.9487560   4.6017550
   8.9898190  58.0484550   3.2222960   9.3663010  57.1756430   3.1096630
   8.8917700  58.3843250   2.3313400   4.9610930  59.3896550   3.0165580
   5.4689150  59.8877520   3.6570600   5.4924170  58.6131750   2.8404940
  17.0621860  57.5601740   6.7194930  16.3574030  57.9483450   6.2010040
  17.3279780  58.2552030   7.3215860   3.2447030  54.0295110   7.2829000
   3.2465470  54.5467500   6.4774900   2.4151340  53.5525290   7.2598930
   4.4949880  63.6690290   5.4602500   4.1619260  64.2959210   6.1023570
   4.6716560  64.1952170   4.6804170  13.0083790  57.4835370   2.9278840
  12.3039360  57.7720260   3.5081950  13.3695950  58.2935480   2.5678400
   2.9262360  55.7405070   5.2899450   3.2679170  56.5847120   4.9953320
   1.9878170  55.8888810   5.4064790  16.0770710  56.9290160   3.3188050
  15.1295620  56.9629140   3.4503480  16.4020700  57.7429110   3.7037410
  11.5590750  63.8484470   5.2334110  11.9759540  63.6344580   4.3987570
  12.2830570  64.1057260   5.8042730  15.5052850  62.2471690   5.3250350
  14.6771480  62.3164780   4.8500480  16.1003330  62.8326000   4.8566180
  12.4694860  59.0341010   6.2705220  12.0566040  59.8594720   6.5245210
  11.7370810  58.4486050   6.0781580   3.3156270  58.5944120   4.9122930
   3.8670860  58.7039460   4.1376180   3.8299780  58.9681720   5.6278160
   2.9899000  62.1163480   8.5228270   2.8506770  62.9886280   8.8915670
   2.1080360  61.7736290   8.3776210  15.9951430  58.0857590  10.1527340
  15.3795700  58.5937260   9.6242800  15.6747850  57.1855920  10.0953280
   3.7695940  54.0580960   2.0154210   3.3264090  54.8390500   1.6838730
   4.3280930  54.3810850   2.7225150   8.0565750  56.9249480   7.6189530
   7.5945120  57.1332500   8.4309470   7.6543860  56.1108830   7.3160200
  13.0570260  58.1458430   8.7486190  12.2063850  57.8464180   9.0695260
  12.8972050  58.3900440   7.8370010  10.1519970  59.6460180  10.8484980
  10.4773380  58.8123930  10.5087210  10.9400300  60.1688700  10.9963310
   5.8071840  54.6028290   3.8743810   6.1044170  55.5091120   3.7935830
   6.3557400  54.1147070   3.2603380   6.0009370  60.0800110  10.4095730
   5.9052970  59.1394840  10.2596130   6.8441350  60.3015180  10.0143800
   7.7064960  56.5748750  11.6326250   7.0163280  56.3820950  12.2672340
   8.4497260  56.8583390  12.1650550   9.9827930  60.4147190   4.4680170
   9.2509050  60.9234000   4.8170270   9.5852270  59.5977170   4.1668950
   6.4205320  57.0901390   2.8732660   6.4241380  56.6491340   2.0237200
   7.3156440  57.4118720   2.9804480  10.4453840  55.8680870   3.8803110
  10.4626580  56.3189520   4.7244960  10.1969420  54.9686510   4.0936550
  13.8724590  53.2813050   9.7189490  14.1970360  52.5502710  10.2447470
  13.9081100  52.9626690   8.8170480   6.7213290  61.1503170   4.6198070
   7.0883420  60.6761740   5.3659410   6.5318350  62.0244740   4.9606410
   4.5112660  60.1911810   6.9382280   4.2069730  61.0703790   7.1632640
   5.4659120  60.2511600   6.9739720  13.7982430  63.3938160   3.3275520
  14.5181550  63.8893450   2.9371630  13.5964250  62.7156050   2.6829390
   9.1801230  63.4647220   9.2144520   9.1138540  62.5442890   8.9602110
   8.5506370  63.5622660   9.9289160   3.7689510  61.4898790  10.9693190
   3.4689650  61.6355970  10.0721010   4.5400750  60.9304080  10.8766580
  15.3229170  62.9275130   8.3116900  14.5977360  63.5203910   8.1146290
  15.8504630  62.9198670   7.5130270  10.6363740  57.0130100   6.5127190
  11.0044560  56.1925310   6.8406760   9.7761940  57.0731990   6.9282840
   7.5965730  59.6669690   6.7365160   8.0950980  60.1415510   7.4017010
   7.7388680  58.7433210   6.9435190  14.8032590  55.8837650   7.5793550
  14.3006190  56.6243050   7.9187360  15.6189250  56.2721650   7.2630340
   6.3491740  63.4701410  10.0383450   5.5837410  64.0386410   9.9538120
   6.5307700  63.1777620   9.1451680   3.2682690  58.7852110   9.3672490
   2.7379150  58.2943060   8.7395830   3.9370760  59.2136310   8.8330420
  12.1660750  63.2521570   9.1313680  12.5801770  63.4066650   9.9804100
  11.2311750  63.3776790   9.2939460  12.6382920  60.5917730  11.1352830
  13.2203690  59.8370050  11.0473310  12.8144690  61.1225170  10.3584310
   3.7554990  55.7514480   9.4469780   3.6611860  55.1335230   8.7220650
   3.1752380  56.4780770   9.2199690   6.5216430  54.3087720   6.4797170
   6.0733730  54.3311980   5.6342720   5.8881630  53.9106740   7.0767470
   6.9275980  63.2042050   7.1009610   7.3464090  64.0474780   6.9285850
   6.0084610  63.3414090   6.8716390   9.2639880  60.9358230   8.4847450
   9.3836090  60.3399370   9.2242290  10.1233880  60.9727920   8.0648750
  11.6027780  61.4895420   7.0609960  11.0763000  62.0138040   6.4575100
  11.9459120  62.1222810   7.6919690   6.0308650  57.4779580   9.7423270
   6.6208340  57.1695430  10.4301090   5.2128890  57.0059330   9.8983170
  10.8502080  57.0945390   9.9756290  10.1617600  56.4326930   9.9106280
  11.5708100  56.6483660  10.4204750  15.1967330  60.3048630   8.4291930
  14.9653420  60.0761380   7.5289880  15.4571880  61.2248180   8.3836820
  13.6355400  55.5305060  11.2071630  14.5125580  55.5388460  11.5905630
  13.6476240  54.7935900  10.5963980  15.0818670  59.3834600   2.0959650
  15.6056150  58.8897250   1.4649820  15.6678090  59.5184960   2.8407220
  15.2608390  59.4674470   5.6179200  14.3111100  59.4338010   5.7324190
  15.4421400  60.3774580   5.3828970  14.3471520  53.2163030   7.0272740
  14.9843740  53.8297170   7.3931930  14.4946410  53.2523690   6.0821970
   7.7176000  54.3689220   9.9347840   7.6564890  54.9611050  10.6843250
   8.6576380  54.2615180   9.7898100  10.3550560  54.0259280   9.5740130
  10.9690970  54.3438570   8.9121210  10.9000120  53.5407870  10.1935990
  11.0958600  52.5891420   5.9009420  10.2218440  52.9226530   5.6982350
  10.9869350  52.1164600   6.7261290  12.0030580  54.7962290   7.2851140
  11.6743940  53.9814050   6.9052870  12.9512880  54.7532100   7.1616830
   8.8433420  53.5061260   4.8402330   8.0605210  53.9806760   5.1199090
   8.5496350  52.6016090   4.7315510  13.3954490  54.2084360   2.8851420
  13.8362580  54.1529460   2.0373020  13.1262080  55.1242370   2.9561600
   4.8792380  53.3531910  11.3915900   4.5976650  53.8565510  10.6276720
   5.2612080  52.5553660  11.0258030  11.4807840  52.7685490  11.9696370
  11.3673290  53.0880100  12.8647890  12.2977580  53.1698000  11.6733650
  10.3865990  42.0134470  57.4305070  10.3060040  41.0989080  57.1596780
   9.9730410  42.5101540  56.7244780   8.5184030  43.7913490  59.3114340
   7.7426130  43.3113930  59.6012910   9.1696960  43.1119140  59.1370500
  12.5391460  48.1973680  58.0913470  12.0772990  47.4260920  58.4200640
  13.3517010  48.2239750  58.5965920   8.7654770  50.4831690  57.7117460
   8.1466210  50.9389190  57.1411900   9.6206550  50.6383150  57.3107160
   7.9593020  46.4670680  59.3184500   7.8901300  45.5260620  59.1573630
   8.7212880  46.5572090  59.8907070   8.9898190  39.2741060  59.5453430
   9.3663010  38.4012940  59.4327100   8.8917700  39.6099760  58.6543870
   3.1203200  37.6466690  55.0070870   3.2269950  38.5470420  55.3139630
   2.2095560  37.5984660  54.7165520  12.7722310  36.7691500  56.4781770
  13.5931930  36.2788070  56.5207250  12.8056390  37.3589160  57.2313610
   4.9610930  40.6153060  59.3396050   5.4689150  41.1134030  59.9801070
   5.4924170  39.8388260  59.1635410   9.6318120  45.3670930  55.1049370
   9.0135390  45.8320380  54.5412090  10.1441370  46.0598410  55.5218880
  13.0083790  38.7091880  59.2509310  12.3039360  38.9976770  59.8312420
  13.3695950  39.5191990  58.8908870  16.0770710  38.1546670  59.6418520
  15.1295620  38.1885650  59.7733950  16.4020700  38.9685620  60.0267880
   6.6090250  34.4543850  57.9374510   6.9165230  33.8990740  57.2210010
   5.6790950  34.5888310  57.7547500  12.1605310  50.1711140  60.2281970
  12.1732470  49.7673430  59.3604230  11.6080530  50.9458430  60.1243400
  13.4550730  46.8927360  55.3172140  13.3447060  45.9501690  55.4421560
  13.4518980  47.2543000  56.2034900   8.9971010  42.5192680  54.6734630
   8.0700290  42.4530060  54.9023100   9.1495830  43.4572810  54.5589870
   8.9840090  38.7909680  51.6701790   8.0443760  38.9523640  51.7554250
   9.3023350  39.5095360  51.1237780  13.0268300  44.0812980  55.1769880
  12.4080720  43.7432530  54.5296180  13.0092750  43.4372740  55.8849070
   4.6027650  43.0457420  57.4554360   4.1984650  42.3334670  56.9600260
   4.6890770  42.7010660  58.3442400   5.0709350  46.7324980  59.6193570
   4.7737640  46.1270450  58.9401350   6.0209170  46.7702290  59.5082930
  11.2033000  43.3199790  52.1842630  11.6426280  42.4822220  52.0380450
  11.9161420  43.9529190  52.2706770   9.3128380  48.2595860  56.1523870
   9.7524290  49.0020190  55.7379260   9.2515270  48.5022430  57.0762830
  14.7850140  34.5742600  50.4983670  14.4722800  34.6669430  51.3982740
  15.5462610  35.1523630  50.4481100  11.9798560  51.2464980  53.5086880
  11.8199700  50.9567920  54.4068710  11.8145270  50.4705110  52.9732110
   4.4586940  51.0263510  55.2858500   4.2829420  50.1099050  55.0726300
   3.6042680  51.3850800  55.5256300  11.6824690  48.7552540  52.0684880
  10.9889850  48.7529830  51.4087160  12.4247550  48.3311860  51.6379050
  11.2474620  50.3815250  56.1433370  11.7031570  49.6004630  56.4571990
  11.5867140  51.0922070  56.6874550   3.7695940  35.2837470  58.3384680
   3.3264090  36.0647010  58.0069200   4.3280930  35.6067360  59.0455620
   6.8854760  34.9048170  53.2190510   6.2608940  34.9008040  53.9443820
   6.7984880  34.0379130  52.8226480   5.8071840  35.8284800  60.1974280
   6.1044170  36.7347630  60.1166300   6.3557400  35.3403580  59.5833850
   3.5610160  40.4071040  56.0665930   3.3351080  40.1908210  56.9712550
   2.7802690  40.8399500  55.7211900  10.7907920  40.4134410  54.6656580
  10.1916810  41.1370210  54.4820200  11.3387530  40.3511190  53.8833030
   9.3972790  39.0497950  56.6959860   9.7902360  39.3670150  55.8828550
   9.7589640  38.1709830  56.8104380   6.4205320  38.3157900  59.1963130
   6.4241380  37.8747850  58.3467670   7.3156440  38.6375230  59.3034950
   6.4825470  39.3169980  52.1869890   6.6038290  39.2756460  53.1355710
   6.0973980  40.1794130  52.0316620   5.4946970  41.6271120  51.5853190
   4.9263870  41.1789370  50.9589100   6.2035970  41.9863900  51.0518340
   3.0394450  45.6229310  53.8579600   2.2656710  45.0826930  53.6978320
   3.7689080  45.1035920  53.5197360  13.7982430  44.6194670  59.6505990
  14.5181550  45.1149960  59.2602100  13.5964250  43.9412560  59.0059860
   9.2592370  36.0132630  53.7935380   8.4456980  35.5145800  53.7180690
   9.0654320  36.8530880  53.3771730  11.9740760  40.3852280  52.0897540
  12.8620380  40.6969510  51.9148880  11.9445850  39.5124530  51.6978120
   3.0831850  45.2909690  57.4958410   3.6010520  44.4877950  57.4415300
   2.6315870  45.2288830  58.3375240   7.9701350  46.5575970  52.7685710
   8.3117050  47.3018200  52.2729030   7.1414060  46.8707090  53.1310540
  14.2455030  41.6964120  51.5577400  14.1618750  42.1278340  50.7073840
  14.9649220  42.1562470  51.9904220  15.2742280  48.5506380  54.2859530
  14.6318440  47.8962000  54.5603250  14.8872940  48.9561470  53.5100200
  10.8528760  45.8791810  58.1331220  11.2052580  45.2819940  57.4732590
   9.9691090  45.5536040  58.3039470   6.9392040  46.6389500  55.5401630
   7.6263170  47.1858710  55.9209220   6.1524460  47.1830230  55.5751240
   6.2419250  43.6435530  55.1526990   6.6982030  44.4540780  55.3787180
   5.8907460  43.3258670  55.9845480  13.6639660  47.4422840  50.8235880
  13.4377240  46.7253280  51.4160520  13.2735860  47.1935280  49.9857630
  13.2455910  45.3594780  52.4850040  12.9577610  45.8207470  53.2727920
  14.0408080  44.8992550  52.7534260   5.4624310  48.8520900  52.4154010
   5.4534410  49.5850590  51.7998520   4.5422670  48.6052480  52.5080970
  14.0025770  37.1943550  53.6445220  13.3738930  37.2989220  52.9303450
  13.5077690  37.4140330  54.4339100   8.4483910  48.9149140  51.0779200
   8.5495890  48.7113130  50.1481180   7.5485650  48.6607420  51.2826980
   5.9709800  39.4729500  55.0603100   5.2625950  39.9415840  55.5016710
   6.2554280  38.8151510  55.6948290  10.0025230  36.1980160  56.4998890
   9.8793010  36.2166290  55.5508400  10.9509790  36.2459100  56.6197290
   7.0902020  51.4335460  55.7726870   7.3443520  51.3956850  54.8506240
   6.1414500  51.3068790  55.7655120   4.1744820  37.7814580  52.4353810
   5.0235350  38.2184730  52.3694000   3.8076090  38.0934840  53.2625870
  13.0954600  42.3527340  57.3485380  12.1544740  42.3677570  57.5233070
  13.4098670  41.5663300  57.7945680   3.0736240  44.0346940  50.9089340
   3.8399510  43.9228300  51.4714770   3.1510930  43.3384910  50.2566110
   1.7683000  41.4672010  51.5922230   1.8486590  40.5199520  51.7039630
   2.6602750  41.7978890  51.6982890  15.0980180  49.5236190  59.0239640
  15.2227600  50.3467360  59.4963450  15.9645740  49.3126920  58.6763790
   2.5697710  51.6167400  58.6956770   3.3060190  51.0682860  58.9665340
   2.9538630  52.4823410  58.5562760   5.6800020  50.7897710  50.5182340
   6.4728630  51.0786540  50.0664130   5.1604370  50.3589880  49.8394820
  14.7330190  50.0167840  51.9419080  14.4471700  49.6032980  51.1273260
  14.5349740  50.9455550  51.8219600   6.1977420  46.0101120  50.3824690
   6.0928060  45.3953470  51.1086070   6.0301640  45.4867010  49.5987700
   9.4380150  45.0721150  50.9866680   8.8890250  45.5190450  51.6309420
  10.0599410  44.5670400  51.5104350   5.1055270  44.0312070  52.8831980
   5.5271690  43.8651940  53.7263370   5.2306110  43.2212300  52.3887120
   7.6182910  43.0549680  50.1309080   8.1388570  42.3398700  49.7650230
   8.2651310  43.6935550  50.4309590   4.0014170  40.1045300  49.8290140
   3.8003230  39.2412660  50.1903480   3.8306220  40.0178660  48.8911740
  11.4802480  34.9153530  52.3577020  11.7604770  34.0721430  52.7136440
  10.7068210  35.1476640  52.8715770   2.7996970  37.2045920  49.8168020
   3.1022870  37.2113350  48.9087170   3.5391560  36.8543780  50.3135680
   6.0181900  36.1480540  50.8024220   5.6703900  35.4704530  50.2226670
   6.2194670  35.6870050  51.6167610   8.1830940  51.1361290  52.4210820
   9.0781730  51.4746260  52.4429580   8.2148570  50.4140700  51.7935100
   1.8227100  46.5088340  50.6497820   2.2601970  47.0518010  51.3055400
   2.3074830  45.6835290  50.6594160   3.6334820  47.6286380  55.7620050
   3.3330360  47.5051350  56.6623960   3.5272310  46.7694970  55.3535780
  16.4026740  47.4082780  50.4646730  15.5719700  47.4759430  50.9353960
  16.5798570  48.2986900  50.1613590  15.8583200  44.1530260  52.9680930
  16.6202110  44.7226910  53.0740620  15.8737570  43.5857460  53.7389240
  16.8643170  45.0080360  57.8122860  17.2352000  44.2247680  57.4058830
  17.5045100  45.6969460  57.6340160  15.9102370  44.4464630  50.1253450
  16.1851210  45.3543510  49.9972670  15.7213110  44.3827160  51.0615440
  12.3077980  37.4709480  51.4207080  12.7262860  37.2840460  50.5803740
  12.0014040  36.6188530  51.7310010  15.8067710  42.3833620  55.1182880
  15.4311310  41.6161550  54.6864170  15.0770830  42.7656320  55.6057810
  15.0818670  40.6091110  58.4190120  15.6056150  40.1153760  57.7880290
  15.6678090  40.7441470  59.1637690  14.5718640  39.8664460  54.3582530
  15.0677760  39.6335330  55.1431410  14.3734710  39.0276300  53.9420170
  16.0005800  38.5025410  56.8920210  15.8905080  38.3481450  57.8302480
  16.7613390  37.9746350  56.6495620  16.9634560  37.1043990  52.7583060
  16.1686060  37.0389110  53.2875970  17.1677840  38.0394630  52.7468410
  13.9052980  51.1435540  56.7521450  14.5012050  50.8220110  56.0755870
  14.1631130  50.6707360  57.5434720   4.8860910  50.1019080  59.7567310
   5.4025930  49.4906440  59.2315570   5.5358290  50.6047860  60.2478320
  13.3954490  35.4340870  59.2081890  13.8362580  35.3785970  58.3603490
  13.1262080  36.3498880  59.2792070  15.2593060  35.0656110  57.2190710
  15.1981460  34.1217330  57.0721730  16.0385090  35.1736200  57.7644170
   6.7287640  37.1504520  56.6748830   5.9162150  36.7761410  56.3344710
   7.2329280  36.3949600  56.9770020  11.2312620  33.8146970  57.9131900
  11.8341990  34.3867180  58.3880420  10.4905610  34.3786410  57.6905800
  14.3747220  34.2168530  53.1872180  14.5697850  35.1151980  53.4539610
  13.5877090  33.9855610  53.6805130   2.5598980  35.5629300  52.2248490
   3.0891740  34.7759100  52.0956440   3.1927300  36.2420490  52.4584020
   4.7536820  35.3004440  55.2793880   4.1239560  34.5991750  55.4464010
   4.2141960  36.0608570  55.0627040  15.9273830  51.4569240  54.9478740
  16.1026020  50.7706980  54.3039660  15.2295400  51.9816290  54.5555410
   3.7701480  51.8464080  52.5014050   4.5020300  51.5623360  51.9537940
   4.0295150  51.6077360  53.3913430   2.9316270  47.9628810  52.5060380
   2.3025150  48.4313910  53.0546210   3.0464100  47.1178030  52.9406570
  10.3865990  42.0134470  38.6561580  10.3060040  41.0989080  38.3853290
   9.9730410  42.5101540  37.9501290   8.5184030  43.7913490  40.5370850
   7.7426130  43.3113930  40.8269420   9.1696960  43.1119140  40.3627010
   2.5349860  44.1033300  41.4146610   1.7034740  43.8482010  41.8143120
   3.1430840  44.1744070  42.1504530  12.5391460  48.1973680  39.3169980
  12.0772990  47.4260920  39.6457150  13.3517010  48.2239750  39.8222430
   2.5151120  48.1373390  41.6104630   2.8179160  47.2471130  41.4314850
   3.2594710  48.6943610  41.3826880   8.7654770  50.4831690  38.9373970
   8.1466210  50.9389190  38.3668410   9.6206550  50.6383150  38.5363670
   7.9593020  46.4670680  40.5441010   7.8901300  45.5260620  40.3830140
   8.7212880  46.5572090  41.1163580   8.9898190  39.2741060  40.7709940
   9.3663010  38.4012940  40.6583610   8.8917700  39.6099760  39.8800380
   3.1203200  37.6466690  36.2327380   3.2269950  38.5470420  36.5396140
   2.2095560  37.5984660  35.9422030   4.9610930  40.6153060  40.5652560
   5.4689150  41.1134030  41.2057580   5.4924170  39.8388260  40.3891920
   3.2447030  35.2551620  44.8315980   3.2465470  35.7724010  44.0261880
   2.4151340  34.7781800  44.8085910   9.6318120  45.3670930  36.3305880
   9.0135390  45.8320380  35.7668600  10.1441370  46.0598410  36.7475390
   4.4949880  44.8946800  43.0089480   4.1619260  45.5215720  43.6510550
   4.6716560  45.4208680  42.2291150   2.9262360  36.9661580  42.8386430
   3.2679170  37.8103630  42.5440300   1.9878170  37.1145320  42.9551770
   3.7068980  46.8627600  44.8238660   4.3242980  47.5378680  44.5423110
   2.8462100  47.2715580  44.7326160  14.6246570  48.3267010  42.7393300
  13.9410090  48.9966120  42.7309970  15.1640860  48.5247660  41.9738160
   6.6090250  34.4543850  39.1631020   6.9165230  33.8990740  38.4466520
   5.6790950  34.5888310  38.9804010  12.1605310  50.1711140  41.4538480
  12.1732470  49.7673430  40.5860740  11.6080530  50.9458430  41.3499910
  13.4550730  46.8927360  36.5428650  13.3447060  45.9501690  36.6678070
  13.4518980  47.2543000  37.4291410  11.5590750  45.0740980  42.7821090
  11.9759540  44.8601090  41.9474550  12.2830570  45.3313770  43.3529710
   8.9971010  42.5192680  35.8991140   8.0700290  42.4530060  36.1279610
   9.1495830  43.4572810  35.7846380   8.9840090  38.7909680  32.8958300
   8.0443760  38.9523640  32.9810760   9.3023350  39.5095360  32.3494290
  13.0268300  44.0812980  36.4026390  12.4080720  43.7432530  35.7552690
  13.0092750  43.4372740  37.1105580   4.6027650  43.0457420  38.6810870
   4.1984650  42.3334670  38.1856770   4.6890770  42.7010660  39.5698910
   5.0709350  46.7324980  40.8450080   4.7737640  46.1270450  40.1657860
   6.0209170  46.7702290  40.7339440   3.3156270  39.8200630  42.4609910
   3.8670860  39.9295970  41.6863160   3.8299780  40.1938230  43.1765140
  13.1594960  50.3056850  44.5073180  12.6825520  51.1129040  44.3145790
  12.4756750  49.6535180  44.6599390   4.1627780  46.4706670  47.4957880
   3.2656310  46.6946640  47.7431280   4.1880650  46.5941610  46.5469280
  11.2033000  43.3199790  33.4099140  11.6426280  42.4822220  33.2636960
  11.9161420  43.9529190  33.4963280   2.9899000  43.3419990  46.0715250
   2.8506770  44.2142790  46.4402650   2.1080360  42.9992800  45.9263190
   9.3128380  48.2595860  37.3780380   9.7524290  49.0020190  36.9635770
   9.2515270  48.5022430  38.3019340   4.7879350  49.2841690  48.2800400
   4.7594780  49.6884640  47.4128830   4.6244320  48.3552050  48.1172000
  16.7394170  50.0668790  49.5764570  17.2153890  50.5451680  50.2553650
  17.3601330  49.9986280  48.8510070  16.1427420  47.2581640  46.7364580
  16.2690480  47.0193520  45.8181760  16.1848800  46.4266180  47.2086660
  10.0044160  50.9609640  45.3059390  10.5188830  50.8717650  46.1081820
   9.1613240  51.3069340  45.5987300  11.9798560  51.2464980  34.7343390
  11.8199700  50.9567920  35.6325220  11.8145270  50.4705110  34.1988620
   4.4586940  51.0263510  36.5115010   4.2829420  50.1099050  36.2982810
   3.6042680  51.3850800  36.7512810  11.6824690  48.7552540  33.2941390
  10.9889850  48.7529830  32.6343670  12.4247550  48.3311860  32.8635560
  11.2474620  50.3815250  37.3689880  11.7031570  49.6004630  37.6828500
  11.5867140  51.0922070  37.9131060   3.7695940  35.2837470  39.5641190
   3.3264090  36.0647010  39.2325710   4.3280930  35.6067360  40.2712130
   8.0565750  38.1505990  45.1676510   7.5945120  38.3589010  45.9796450
   7.6543860  37.3365340  44.8647180  10.1519970  40.8716690  48.3971960
  10.4773380  40.0380440  48.0574190  10.9400300  41.3945210  48.5450290
   6.8854760  34.9048170  34.4447020   6.2608940  34.9008040  35.1700330
   6.7984880  34.0379130  34.0482990   5.8071840  35.8284800  41.4230790
   6.1044170  36.7347630  41.3422810   6.3557400  35.3403580  40.8090360
   3.5610160  40.4071040  37.2922440   3.3351080  40.1908210  38.1969060
   2.7802690  40.8399500  36.9468410  10.7907920  40.4134410  35.8913090
  10.1916810  41.1370210  35.7076710  11.3387530  40.3511190  35.1089540
   6.0009370  41.3056620  47.9582710   5.9052970  40.3651350  47.8083110
   6.8441350  41.5271690  47.5630780   9.3972790  39.0497950  37.9216370
   9.7902360  39.3670150  37.1085060   9.7589640  38.1709830  38.0360890
   7.7064960  37.8005260  49.1813230   7.0163280  37.6077460  49.8159320
   8.4497260  38.0839900  49.7137530   9.9827930  41.6403700  42.0167150
   9.2509050  42.1490510  42.3657250   9.5852270  40.8233680  41.7155930
   6.4205320  38.3157900  40.4219640   6.4241380  37.8747850  39.5724180
   7.3156440  38.6375230  40.5291460   6.4825470  39.3169980  33.4126400
   6.6038290  39.2756460  34.3612220   6.0973980  40.1794130  33.2573130
  10.4453840  37.0937380  41.4290090  10.4626580  37.5446030  42.2731940
  10.1969420  36.1943020  41.6423530   5.4946970  41.6271120  32.8109700
   4.9263870  41.1789370  32.1845610   6.2035970  41.9863900  32.2774850
   6.7213290  42.3759680  42.1685050   7.0883420  41.9018250  42.9146390
   6.5318350  43.2501250  42.5093390   4.5112660  41.4168320  44.4869260
   4.2069730  42.2960300  44.7119620   5.4659120  41.4768110  44.5226700
   3.0394450  45.6229310  35.0836110   2.2656710  45.0826930  34.9234830
   3.7689080  45.1035920  34.7453870  13.7982430  44.6194670  40.8762500
  14.5181550  45.1149960  40.4858610  13.5964250  43.9412560  40.2316370
   9.2592370  36.0132630  35.0191890   8.4456980  35.5145800  34.9437200
   9.0654320  36.8530880  34.6028240   9.1801230  44.6903730  46.7631500
   9.1138540  43.7699400  46.5089090   8.5506370  44.7879170  47.4776140
  11.9740760  40.3852280  33.3154050  12.8620380  40.6969510  33.1405390
  11.9445850  39.5124530  32.9234630   3.0831850  45.2909690  38.7214920
   3.6010520  44.4877950  38.6671810   2.6315870  45.2288830  39.5631750
   7.9701350  46.5575970  33.9942220   8.3117050  47.3018200  33.4985540
   7.1414060  46.8707090  34.3567050   3.7689510  42.7155300  48.5180170
   3.4689650  42.8612480  47.6207990   4.5400750  42.1560590  48.4253560
   9.1117960  47.5124300  46.5135300   9.1262500  46.5805260  46.2954210
   8.4043060  47.5984060  47.1525070  14.2455030  41.6964120  32.7833910
  14.1618750  42.1278340  31.9330350  14.9649220  42.1562470  33.2160730
  15.2742280  48.5506380  35.5116040  14.6318440  47.8962000  35.7859760
  14.8872940  48.9561470  34.7356710  10.8528760  45.8791810  39.3587730
  11.2052580  45.2819940  38.6989100   9.9691090  45.5536040  39.5295980
   6.9392040  46.6389500  36.7658140   7.6263170  47.1858710  37.1465730
   6.1524460  47.1830230  36.8007750   6.2419250  43.6435530  36.3783500
   6.6982030  44.4540780  36.6043690   5.8907460  43.3258670  37.2101990
   8.5451860  49.1541870  43.6075800   9.1894080  49.3601250  44.2849220
   8.9081300  48.3930270  43.1546650   9.8183940  47.1574220  42.3253250
  10.4606170  46.4567380  42.4385420  10.3433290  47.9372660  42.1450140
  13.6639660  47.4422840  32.0492390  13.4377240  46.7253280  32.6417030
  13.2735860  47.1935280  31.2114140  11.5921560  47.9569120  45.5289310
  11.9277800  48.5435810  46.2067230  10.6721900  47.8261830  45.7587100
  13.2455910  45.3594780  33.7106550  12.9577610  45.8207470  34.4984430
  14.0408080  44.8992550  33.9790770   7.4210140  48.0060450  48.6977370
   7.1007010  47.2869690  49.2423060   6.7468500  48.6815520  48.7713430
   5.4624310  48.8520900  33.6410520   5.4534410  49.5850590  33.0255030
   4.5422670  48.6052480  33.7337480   8.4483910  48.9149140  32.3035710
   8.5495890  48.7113130  31.3737690   7.5485650  48.6607420  32.5083490
   5.9709800  39.4729500  36.2859610   5.2625950  39.9415840  36.7273220
   6.2554280  38.8151510  36.9204800   7.5965730  40.8926200  44.2852140
   8.0950980  41.3672020  44.9503990   7.7388680  39.9689720  44.4922170
  10.0025230  36.1980160  37.7255400   9.8793010  36.2166290  36.7764910
  10.9509790  36.2459100  37.8453800   7.0902020  51.4335460  36.9983380
   7.3443520  51.3956850  36.0762750   6.1414500  51.3068790  36.9911630
   4.1744820  37.7814580  33.6610320   5.0235350  38.2184730  33.5950510
   3.8076090  38.0934840  34.4882380  13.0954600  42.3527340  38.5741890
  12.1544740  42.3677570  38.7489580  13.4098670  41.5663300  39.0202190
   3.0736240  44.0346940  32.1345850   3.8399510  43.9228300  32.6971280
   3.1510930  43.3384910  31.4822620   1.7683000  41.4672010  32.8178740
   1.8486590  40.5199520  32.9296140   2.6602750  41.7978890  32.9239400
  15.0980180  49.5236190  40.2496150  15.2227600  50.3467360  40.7219960
  15.9645740  49.3126920  39.9020300   2.5697710  51.6167400  39.9213280
   3.3060190  51.0682860  40.1921850   2.9538630  52.4823410  39.7819270
   5.6800020  50.7897710  31.7438850   6.4728630  51.0786540  31.2920640
   5.1604370  50.3589880  31.0651330  10.4120620  46.9093340  49.0574270
   9.8058780  46.9324940  48.3170020  10.1074730  46.1776380  49.5941520
  11.8420990  50.6373630  47.6683680  12.7942740  50.5531650  47.6183920
  11.6949210  51.3015340  48.3417470  14.7330190  50.0167840  33.1675590
  14.4471700  49.6032980  32.3529770  14.5349740  50.9455550  33.0476110
   6.1977420  46.0101120  31.6081200   6.0928060  45.3953470  32.3342580
   6.0301640  45.4867010  30.8244210   6.3491740  44.6957920  47.5870430
   5.5837410  45.2642920  47.5025100   6.5307700  44.4034130  46.6938660
   9.4380150  45.0721150  32.2123190   8.8890250  45.5190450  32.8565930
  10.0599410  44.5670400  32.7360860  13.4915090  46.4263250  48.1445450
  14.2324560  46.7639010  47.6412910  12.7287770  46.5955310  47.5915220
   5.1055270  44.0312070  34.1088490   5.5271690  43.8651940  34.9519880
   5.2306110  43.2212300  33.6143630   3.2682690  40.0108620  46.9159470
   2.7379150  39.5199570  46.2882810   3.9370760  40.4392820  46.3817400
   7.6182910  43.0549680  31.3565590   8.1388570  42.3398700  30.9906740
   8.2651310  43.6935550  31.6566100  12.1660750  44.4778080  46.6800660
  12.5801770  44.6323160  47.5291080  11.2311750  44.6033300  46.8426440
  12.6382920  41.8174240  48.6839810  13.2203690  41.0626560  48.5960290
  12.8144690  42.3481680  47.9071290   3.7554990  36.9770990  46.9956760
   3.6611860  36.3591740  46.2707630   3.1752380  37.7037280  46.7686670
   6.5216430  35.5344230  44.0284150   6.0733730  35.5568490  43.1829700
   5.8881630  35.1363250  44.6254450   6.9275980  44.4298560  44.6496590
   7.3464090  45.2731290  44.4772830   6.0084610  44.5670600  44.4203370
   9.2639880  42.1614740  46.0334430   9.3836090  41.5655880  46.7729270
  10.1233880  42.1984430  45.6135730  11.6027780  42.7151930  44.6096940
  11.0763000  43.2394550  44.0062080  11.9459120  43.3479320  45.2406670
   4.0014170  40.1045300  31.0546650   3.8003230  39.2412660  31.4159990
   3.8306220  40.0178660  30.1168250   4.7783400  50.7351570  45.7654320
   4.2404490  51.4597630  45.4463020   5.0317360  50.2581910  44.9751660
   6.0308650  38.7036090  47.2910250   6.6208340  38.3951940  47.9788070
   5.2128890  38.2315840  47.4470150  10.8502080  38.3201900  47.5243270
  10.1617600  37.6583440  47.4593260  11.5708100  37.8740170  47.9691730
  11.4802480  34.9153530  33.5833530  11.7604770  34.0721430  33.9392950
  10.7068210  35.1476640  34.0972280   2.7996970  37.2045920  31.0424530
   3.1022870  37.2113350  30.1343680   3.5391560  36.8543780  31.5392190
   7.6345610  51.9702780  46.0240970   7.5604310  52.8737920  46.3313340
   6.7324450  51.6514680  45.9963040   6.0181900  36.1480540  32.0280730
   5.6703900  35.4704530  31.4483180   6.2194670  35.6870050  32.8424120
   8.1830940  51.1361290  33.6467330   9.0781730  51.4746260  33.6686090
   8.2148570  50.4140700  33.0191610   1.8227100  46.5088340  31.8754330
   2.2601970  47.0518010  32.5311910   2.3074830  45.6835290  31.8850670
   3.6334820  47.6286380  36.9876560   3.3330360  47.5051350  37.8880470
   3.5272310  46.7694970  36.5792290  15.1625290  49.6664960  46.3533530
  14.5627280  49.7257520  45.6097450  15.2919190  48.7269940  46.4830380
  16.4026740  47.4082780  31.6903240  15.5719700  47.4759430  32.1610470
  16.5798570  48.2986900  31.3870100  15.8583200  44.1530260  34.1937440
  16.6202110  44.7226910  34.2997130  15.8737570  43.5857460  34.9645750
  13.8476930  46.3916940  44.4509690  13.0336770  46.8214100  44.7135480
  14.2551130  47.0035350  43.8378740  15.9102370  44.4464630  31.3509960
  16.1851210  45.3543510  31.2229180  15.7213110  44.3827160  32.2871950
  12.3077980  37.4709480  32.6463590  12.7262860  37.2840460  31.8060250
  12.0014040  36.6188530  32.9566520  15.8067710  42.3833620  36.3439390
  15.4311310  41.6161550  35.9120680  15.0770830  42.7656320  36.8314320
  14.5718640  39.8664460  35.5839040  15.0677760  39.6335330  36.3687920
  14.3734710  39.0276300  35.1676680  13.9052980  51.1435540  37.9777960
  14.5012050  50.8220110  37.3012380  14.1631130  50.6707360  38.7691230
   1.8115550  47.5753450  48.1268590   1.7685180  47.2046360  49.0083050
   1.9426560  48.5131020  48.2670410   5.5121580  49.1313040  43.7278310
   5.2712940  49.3987600  42.8408830   6.4524220  49.3018770  43.7829170
   7.7176000  35.5945730  47.4834820   7.6564890  36.1867560  48.2330230
   8.6576380  35.4871690  47.3385080  10.3550560  35.2515790  47.1227110
  10.9690970  35.5695080  46.4608190  10.9000120  34.7664380  47.7422970
  16.7725740  51.1507420  44.5288950  16.2784020  51.5476290  43.8116080
  16.1639030  50.5256630  44.9226230  11.0958600  33.8147930  43.4496400
  10.2218440  34.1483040  43.2469330  10.9869350  33.3421110  44.2748270
  14.4565190  51.7930840  41.8075690  13.9968160  52.5446650  41.4333710
  13.8277650  51.0737310  41.7490490   4.8860910  50.1019080  40.9823820
   5.4025930  49.4906440  40.4572080   5.5358290  50.6047860  41.4734830
   7.6256410  50.9927570  41.8092800   7.9134220  50.7381870  40.9325810
   8.1379630  50.4404930  42.3998370   8.8433420  34.7317770  42.3889310
   8.0605210  35.2063270  42.6686070   8.5496350  33.8272600  42.2802490
   6.7287640  37.1504520  37.9005340   5.9162150  36.7761410  37.5601220
   7.2329280  36.3949600  38.2026530   2.5598980  35.5629300  33.4505000
   3.0891740  34.7759100  33.3212950   3.1927300  36.2420490  33.6840530
   4.7536820  35.3004440  36.5050390   4.1239560  34.5991750  36.6720520
   4.2141960  36.0608570  36.2883550   7.6928770  51.9143670  49.1761000
   8.6196080  51.6787940  49.2196960   7.6779200  52.7415670  48.6947030
  15.9273830  51.4569240  36.1735250  16.1026020  50.7706980  35.5296170
  15.2295400  51.9816290  35.7811920   4.8792380  34.5788420  48.9402880
   4.5976650  35.0822020  48.1763700   5.2612080  33.7810170  48.5745010
   3.7701480  51.8464080  33.7270560   4.5020300  51.5623360  33.1794450
   4.0295150  51.6077360  34.6169940   2.9316270  47.9628810  33.7316890
   2.3025150  48.4313910  34.2802720   3.0464100  47.1178030  34.1663080
  11.4807840  33.9942000  49.5183350  11.3673290  34.3136610  50.4134870
  12.2977580  34.3954510  49.2220630  14.2606330  51.1413530  49.0002040
  15.0531650  50.6462760  48.7928000  14.5539480  51.8203670  49.6077650
  10.3865990  42.0134470  19.8818090  10.3060040  41.0989080  19.6109800
   9.9730410  42.5101540  19.1757800   8.5184030  43.7913490  21.7627360
   7.7426130  43.3113930  22.0525930   9.1696960  43.1119140  21.5883520
   2.5349860  44.1033300  22.6403120   1.7034740  43.8482010  23.0399630
   3.1430840  44.1744070  23.3761040  12.5391460  48.1973680  20.5426490
  12.0772990  47.4260920  20.8713660  13.3517010  48.2239750  21.0478940
   2.5151120  48.1373390  22.8361140   2.8179160  47.2471130  22.6571360
   3.2594710  48.6943610  22.6083390   8.7654770  50.4831690  20.1630480
   8.1466210  50.9389190  19.5924920   9.6206550  50.6383150  19.7620180
   7.9593020  46.4670680  21.7697520   7.8901300  45.5260620  21.6086650
   8.7212880  46.5572090  22.3420090   8.9898190  39.2741060  21.9966450
   9.3663010  38.4012940  21.8840120   8.8917700  39.6099760  21.1056890
   3.1203200  37.6466690  17.4583890   3.2269950  38.5470420  17.7652650
   2.2095560  37.5984660  17.1678540  12.7722310  36.7691500  18.9294790
  13.5931930  36.2788070  18.9720270  12.8056390  37.3589160  19.6826630
   4.9610930  40.6153060  21.7909070   5.4689150  41.1134030  22.4314090
   5.4924170  39.8388260  21.6148430  17.0621860  38.7858250  25.4938420
  16.3574030  39.1739960  24.9753530  17.3279780  39.4808540  26.0959350
   3.2447030  35.2551620  26.0572490   3.2465470  35.7724010  25.2518390
   2.4151340  34.7781800  26.0342420   9.6318120  45.3670930  17.5562390
   9.0135390  45.8320380  16.9925110  10.1441370  46.0598410  17.9731900
   4.4949880  44.8946800  24.2345990   4.1619260  45.5215720  24.8767060
   4.6716560  45.4208680  23.4547660  13.0083790  38.7091880  21.7022330
  12.3039360  38.9976770  22.2825440  13.3695950  39.5191990  21.3421890
   2.9262360  36.9661580  24.0642940   3.2679170  37.8103630  23.7696810
   1.9878170  37.1145320  24.1808280   3.7068980  46.8627600  26.0495170
   4.3242980  47.5378680  25.7679620   2.8462100  47.2715580  25.9582670
  14.6246570  48.3267010  23.9649810  13.9410090  48.9966120  23.9566480
  15.1640860  48.5247660  23.1994670  16.0770710  38.1546670  22.0931540
  15.1295620  38.1885650  22.2246970  16.4020700  38.9685620  22.4780900
   6.6090250  34.4543850  20.3887530   6.9165230  33.8990740  19.6723030
   5.6790950  34.5888310  20.2060520  12.1605310  50.1711140  22.6794990
  12.1732470  49.7673430  21.8117250  11.6080530  50.9458430  22.5756420
  13.4550730  46.8927360  17.7685160  13.3447060  45.9501690  17.8934580
  13.4518980  47.2543000  18.6547920  11.5590750  45.0740980  24.0077600
  11.9759540  44.8601090  23.1731060  12.2830570  45.3313770  24.5786220
   8.9971010  42.5192680  17.1247650   8.0700290  42.4530060  17.3536120
   9.1495830  43.4572810  17.0102890   8.9840090  38.7909680  14.1214810
   8.0443760  38.9523640  14.2067270   9.3023350  39.5095360  13.5750800
  15.5052850  43.4728200  24.0993840  14.6771480  43.5421290  23.6243970
  16.1003330  44.0582510  23.6309670  13.0268300  44.0812980  17.6282900
  12.4080720  43.7432530  16.9809200  13.0092750  43.4372740  18.3362090
  12.4694860  40.2597520  25.0448710  12.0566040  41.0851230  25.2988700
  11.7370810  39.6742560  24.8525070   4.6027650  43.0457420  19.9067380
   4.1984650  42.3334670  19.4113280   4.6890770  42.7010660  20.7955420
   5.0709350  46.7324980  22.0706590   4.7737640  46.1270450  21.3914370
   6.0209170  46.7702290  21.9595950   3.3156270  39.8200630  23.6866420
   3.8670860  39.9295970  22.9119670   3.8299780  40.1938230  24.4021650
  13.1594960  50.3056850  25.7329690  12.6825520  51.1129040  25.5402300
  12.4756750  49.6535180  25.8855900   4.1627780  46.4706670  28.7214390
   3.2656310  46.6946640  28.9687790   4.1880650  46.5941610  27.7725790
  11.2033000  43.3199790  14.6355650  11.6426280  42.4822220  14.4893470
  11.9161420  43.9529190  14.7219790   2.9899000  43.3419990  27.2971760
   2.8506770  44.2142790  27.6659160   2.1080360  42.9992800  27.1519700
   9.3128380  48.2595860  18.6036890   9.7524290  49.0020190  18.1892280
   9.2515270  48.5022430  19.5275850   4.7879350  49.2841690  29.5056910
   4.7594780  49.6884640  28.6385340   4.6244320  48.3552050  29.3428510
  14.7850140  34.5742600  12.9496690  14.4722800  34.6669430  13.8495760
  15.5462610  35.1523630  12.8994120  16.7394170  50.0668790  30.8021080
  17.2153890  50.5451680  31.4810160  17.3601330  49.9986280  30.0766580
  16.1427420  47.2581640  27.9621090  16.2690480  47.0193520  27.0438270
  16.1848800  46.4266180  28.4343170  10.0044160  50.9609640  26.5315900
  10.5188830  50.8717650  27.3338330   9.1613240  51.3069340  26.8243810
  11.9798560  51.2464980  15.9599900  11.8199700  50.9567920  16.8581730
  11.8145270  50.4705110  15.4245130   4.4586940  51.0263510  17.7371520
   4.2829420  50.1099050  17.5239320   3.6042680  51.3850800  17.9769320
  11.6824690  48.7552540  14.5197900  10.9889850  48.7529830  13.8600180
  12.4247550  48.3311860  14.0892070  11.2474620  50.3815250  18.5946390
  11.7031570  49.6004630  18.9085010  11.5867140  51.0922070  19.1387570
  15.9951430  39.3114100  28.9270830  15.3795700  39.8193770  28.3986290
  15.6747850  38.4112430  28.8696770   3.7695940  35.2837470  20.7897700
   3.3264090  36.0647010  20.4582220   4.3280930  35.6067360  21.4968640
   8.0565750  38.1505990  26.3933020   7.5945120  38.3589010  27.2052960
   7.6543860  37.3365340  26.0903690  13.0570260  39.3714940  27.5229680
  12.2063850  39.0720690  27.8438750  12.8972050  39.6156950  26.6113500
  10.1519970  40.8716690  29.6228470  10.4773380  40.0380440  29.2830700
  10.9400300  41.3945210  29.7706800   6.8854760  34.9048170  15.6703530
   6.2608940  34.9008040  16.3956840   6.7984880  34.0379130  15.2739500
   5.8071840  35.8284800  22.6487300   6.1044170  36.7347630  22.5679320
   6.3557400  35.3403580  22.0346870   3.5610160  40.4071040  18.5178950
   3.3351080  40.1908210  19.4225570   2.7802690  40.8399500  18.1724920
  10.7907920  40.4134410  17.1169600  10.1916810  41.1370210  16.9333220
  11.3387530  40.3511190  16.3346050   6.0009370  41.3056620  29.1839220
   5.9052970  40.3651350  29.0339620   6.8441350  41.5271690  28.7887290
   9.3972790  39.0497950  19.1472880   9.7902360  39.3670150  18.3341570
   9.7589640  38.1709830  19.2617400   7.7064960  37.8005260  30.4069740
   7.0163280  37.6077460  31.0415830   8.4497260  38.0839900  30.9394040
   9.9827930  41.6403700  23.2423660   9.2509050  42.1490510  23.5913760
   9.5852270  40.8233680  22.9412440   6.4205320  38.3157900  21.6476150
   6.4241380  37.8747850  20.7980690   7.3156440  38.6375230  21.7547970
   6.4825470  39.3169980  14.6382910   6.6038290  39.2756460  15.5868730
   6.0973980  40.1794130  14.4829640  10.4453840  37.0937380  22.6546600
  10.4626580  37.5446030  23.4988450  10.1969420  36.1943020  22.8680040
   5.4946970  41.6271120  14.0366210   4.9263870  41.1789370  13.4102120
   6.2035970  41.9863900  13.5031360   6.7213290  42.3759680  23.3941560
   7.0883420  41.9018250  24.1402900   6.5318350  43.2501250  23.7349900
   4.5112660  41.4168320  25.7125770   4.2069730  42.2960300  25.9376130
   5.4659120  41.4768110  25.7483210   3.0394450  45.6229310  16.3092620
   2.2656710  45.0826930  16.1491340   3.7689080  45.1035920  15.9710380
  13.7982430  44.6194670  22.1019010  14.5181550  45.1149960  21.7115120
  13.5964250  43.9412560  21.4572880   9.2592370  36.0132630  16.2448400
   8.4456980  35.5145800  16.1693710   9.0654320  36.8530880  15.8284750
   9.1801230  44.6903730  27.9888010   9.1138540  43.7699400  27.7345600
   8.5506370  44.7879170  28.7032650  11.9740760  40.3852280  14.5410560
  12.8620380  40.6969510  14.3661900  11.9445850  39.5124530  14.1491140
   3.0831850  45.2909690  19.9471430   3.6010520  44.4877950  19.8928320
   2.6315870  45.2288830  20.7888260   7.9701350  46.5575970  15.2198730
   8.3117050  47.3018200  14.7242050   7.1414060  46.8707090  15.5823560
   3.7689510  42.7155300  29.7436680   3.4689650  42.8612480  28.8464500
   4.5400750  42.1560590  29.6510070   9.1117960  47.5124300  27.7391810
   9.1262500  46.5805260  27.5210720   8.4043060  47.5984060  28.3781580
  14.2455030  41.6964120  14.0090420  14.1618750  42.1278340  13.1586860
  14.9649220  42.1562470  14.4417240  15.3229170  44.1531640  27.0860390
  14.5977360  44.7460420  26.8889780  15.8504630  44.1455180  26.2873760
  15.2742280  48.5506380  16.7372550  14.6318440  47.8962000  17.0116270
  14.8872940  48.9561470  15.9613220  10.8528760  45.8791810  20.5844240
  11.2052580  45.2819940  19.9245610   9.9691090  45.5536040  20.7552490
   6.9392040  46.6389500  17.9914650   7.6263170  47.1858710  18.3722240
   6.1524460  47.1830230  18.0264260   6.2419250  43.6435530  17.6040010
   6.6982030  44.4540780  17.8300200   5.8907460  43.3258670  18.4358500
   8.5451860  49.1541870  24.8332310   9.1894080  49.3601250  25.5105730
   8.9081300  48.3930270  24.3803160   9.8183940  47.1574220  23.5509760
  10.4606170  46.4567380  23.6641930  10.3433290  47.9372660  23.3706650
  13.6639660  47.4422840  13.2748900  13.4377240  46.7253280  13.8673540
  13.2735860  47.1935280  12.4370650  11.5921560  47.9569120  26.7545820
  11.9277800  48.5435810  27.4323740  10.6721900  47.8261830  26.9843610
  13.2455910  45.3594780  14.9363060  12.9577610  45.8207470  15.7240940
  14.0408080  44.8992550  15.2047280   7.4210140  48.0060450  29.9233880
   7.1007010  47.2869690  30.4679570   6.7468500  48.6815520  29.9969940
   5.4624310  48.8520900  14.8667030   5.4534410  49.5850590  14.2511540
   4.5422670  48.6052480  14.9593990  10.6363740  38.2386610  25.2870680
  11.0044560  37.4181820  25.6150250   9.7761940  38.2988500  25.7026330
  14.0025770  37.1943550  16.0958240  13.3738930  37.2989220  15.3816470
  13.5077690  37.4140330  16.8852120   8.4483910  48.9149140  13.5292220
   8.5495890  48.7113130  12.5994200   7.5485650  48.6607420  13.7340000
   5.9709800  39.4729500  17.5116120   5.2625950  39.9415840  17.9529730
   6.2554280  38.8151510  18.1461310   7.5965730  40.8926200  25.5108650
   8.0950980  41.3672020  26.1760500   7.7388680  39.9689720  25.7178680
  10.0025230  36.1980160  18.9511910   9.8793010  36.2166290  18.0021420
  10.9509790  36.2459100  19.0710310   7.0902020  51.4335460  18.2239890
   7.3443520  51.3956850  17.3019260   6.1414500  51.3068790  18.2168140
   4.1744820  37.7814580  14.8866830   5.0235350  38.2184730  14.8207020
   3.8076090  38.0934840  15.7138890  14.8032590  37.1094160  26.3537040
  14.3006190  37.8499560  26.6930850  15.6189250  37.4978160  26.0373830
  13.0954600  42.3527340  19.7998400  12.1544740  42.3677570  19.9746090
  13.4098670  41.5663300  20.2458700   3.0736240  44.0346940  13.3602360
   3.8399510  43.9228300  13.9227790   3.1510930  43.3384910  12.7079130
   1.7683000  41.4672010  14.0435250   1.8486590  40.5199520  14.1552650
   2.6602750  41.7978890  14.1495910  15.0980180  49.5236190  21.4752660
  15.2227600  50.3467360  21.9476470  15.9645740  49.3126920  21.1276810
   2.5697710  51.6167400  21.1469790   3.3060190  51.0682860  21.4178360
   2.9538630  52.4823410  21.0075780   5.6800020  50.7897710  12.9695360
   6.4728630  51.0786540  12.5177150   5.1604370  50.3589880  12.2907840
  10.4120620  46.9093340  30.2830780   9.8058780  46.9324940  29.5426530
  10.1074730  46.1776380  30.8198030  11.8420990  50.6373630  28.8940190
  12.7942740  50.5531650  28.8440430  11.6949210  51.3015340  29.5673980
  14.7330190  50.0167840  14.3932100  14.4471700  49.6032980  13.5786280
  14.5349740  50.9455550  14.2732620   6.1977420  46.0101120  12.8337710
   6.0928060  45.3953470  13.5599090   6.0301640  45.4867010  12.0500720
   6.3491740  44.6957920  28.8126940   5.5837410  45.2642920  28.7281610
   6.5307700  44.4034130  27.9195170   9.4380150  45.0721150  13.4379700
   8.8890250  45.5190450  14.0822440  10.0599410  44.5670400  13.9617370
  13.4915090  46.4263250  29.3701960  14.2324560  46.7639010  28.8669420
  12.7287770  46.5955310  28.8171730   5.1055270  44.0312070  15.3345000
   5.5271690  43.8651940  16.1776390   5.2306110  43.2212300  14.8400140
   3.2682690  40.0108620  28.1415980   2.7379150  39.5199570  27.5139320
   3.9370760  40.4392820  27.6073910   7.6182910  43.0549680  12.5822100
   8.1388570  42.3398700  12.2163250   8.2651310  43.6935550  12.8822610
  12.1660750  44.4778080  27.9057170  12.5801770  44.6323160  28.7547590
  11.2311750  44.6033300  28.0682950  12.6382920  41.8174240  29.9096320
  13.2203690  41.0626560  29.8216800  12.8144690  42.3481680  29.1327800
   3.7554990  36.9770990  28.2213270   3.6611860  36.3591740  27.4964140
   3.1752380  37.7037280  27.9943180   6.5216430  35.5344230  25.2540660
   6.0733730  35.5568490  24.4086210   5.8881630  35.1363250  25.8510960
   6.9275980  44.4298560  25.8753100   7.3464090  45.2731290  25.7029340
   6.0084610  44.5670600  25.6459880   9.2639880  42.1614740  27.2590940
   9.3836090  41.5655880  27.9985780  10.1233880  42.1984430  26.8392240
  11.6027780  42.7151930  25.8353450  11.0763000  43.2394550  25.2318590
  11.9459120  43.3479320  26.4663180   4.0014170  40.1045300  12.2803160
   3.8003230  39.2412660  12.6416500   3.8306220  40.0178660  11.3424760
   4.7783400  50.7351570  26.9910830   4.2404490  51.4597630  26.6719530
   5.0317360  50.2581910  26.2008170   6.0308650  38.7036090  28.5166760
   6.6208340  38.3951940  29.2044580   5.2128890  38.2315840  28.6726660
  10.8502080  38.3201900  28.7499780  10.1617600  37.6583440  28.6849770
  11.5708100  37.8740170  29.1948240  11.4802480  34.9153530  14.8090040
  11.7604770  34.0721430  15.1649460  10.7068210  35.1476640  15.3228790
   2.7996970  37.2045920  12.2681040   3.1022870  37.2113350  11.3600190
   3.5391560  36.8543780  12.7648700   7.6345610  51.9702780  27.2497480
   7.5604310  52.8737920  27.5569850   6.7324450  51.6514680  27.2219550
   6.0181900  36.1480540  13.2537240   5.6703900  35.4704530  12.6739690
   6.2194670  35.6870050  14.0680630   8.1830940  51.1361290  14.8723840
   9.0781730  51.4746260  14.8942600   8.2148570  50.4140700  14.2448120
   1.8227100  46.5088340  13.1010840   2.2601970  47.0518010  13.7568420
   2.3074830  45.6835290  13.1107180   3.6334820  47.6286380  18.2133070
   3.3330360  47.5051350  19.1136980   3.5272310  46.7694970  17.8048800
  15.1625290  49.6664960  27.5790040  14.5627280  49.7257520  26.8353960
  15.2919190  48.7269940  27.7086890  16.4026740  47.4082780  12.9159750
  15.5719700  47.4759430  13.3866980  16.5798570  48.2986900  12.6126610
  15.8583200  44.1530260  15.4193950  16.6202110  44.7226910  15.5253640
  15.8737570  43.5857460  16.1902260  16.8643170  45.0080360  20.2635880
  17.2352000  44.2247680  19.8571850  17.5045100  45.6969460  20.0853180
  13.8476930  46.3916940  25.6766200  13.0336770  46.8214100  25.9391990
  14.2551130  47.0035350  25.0635250  15.9102370  44.4464630  12.5766470
  16.1851210  45.3543510  12.4485690  15.7213110  44.3827160  13.5128460
  12.3077980  37.4709480  13.8720100  12.7262860  37.2840460  13.0316760
  12.0014040  36.6188530  14.1823030  15.8067710  42.3833620  17.5695900
  15.4311310  41.6161550  17.1377190  15.0770830  42.7656320  18.0570830
  15.1967330  41.5305140  27.2035420  14.9653420  41.3017890  26.3033370
  15.4571880  42.4504690  27.1580310  13.6355400  36.7561570  29.9815120
  14.5125580  36.7644970  30.3649120  13.6476240  36.0192410  29.3707470
  15.0818670  40.6091110  20.8703140  15.6056150  40.1153760  20.2393310
  15.6678090  40.7441470  21.6150710  15.2608390  40.6930980  24.3922690
  14.3111100  40.6594520  24.5067680  15.4421400  41.6031090  24.1572460
  14.5718640  39.8664460  16.8095550  15.0677760  39.6335330  17.5944430
  14.3734710  39.0276300  16.3933190  16.0005800  38.5025410  19.3433230
  15.8905080  38.3481450  20.2815500  16.7613390  37.9746350  19.1008640
  16.8896070  36.3333330  12.5839370  17.8145380  36.2014510  12.3757660
  16.8671860  36.4126150  13.5375820  16.9634560  37.1043990  15.2096080
  16.1686060  37.0389110  15.7388990  17.1677840  38.0394630  15.1981430
  13.9052980  51.1435540  19.2034470  14.5012050  50.8220110  18.5268890
  14.1631130  50.6707360  19.9947740   1.8115550  47.5753450  29.3525100
   1.7685180  47.2046360  30.2339560   1.9426560  48.5131020  29.4926920
   5.5121580  49.1313040  24.9534820   5.2712940  49.3987600  24.0665340
   6.4524220  49.3018770  25.0085680   7.7176000  35.5945730  28.7091330
   7.6564890  36.1867560  29.4586740   8.6576380  35.4871690  28.5641590
  10.3550560  35.2515790  28.3483620  10.9690970  35.5695080  27.6864700
  10.9000120  34.7664380  28.9679480  16.7725740  51.1507420  25.7545460
  16.2784020  51.5476290  25.0372590  16.1639030  50.5256630  26.1482740
  11.0958600  33.8147930  24.6752910  10.2218440  34.1483040  24.4725840
  10.9869350  33.3421110  25.5004780  12.0030580  36.0218800  26.0594630
  11.6743940  35.2070560  25.6796360  12.9512880  35.9788610  25.9360320
  14.4565190  51.7930840  23.0332200  13.9968160  52.5446650  22.6590220
  13.8277650  51.0737310  22.9747000   4.8860910  50.1019080  22.2080330
   5.4025930  49.4906440  21.6828590   5.5358290  50.6047860  22.6991340
   7.6256410  50.9927570  23.0349310   7.9134220  50.7381870  22.1582320
   8.1379630  50.4404930  23.6254880   8.8433420  34.7317770  23.6145820
   8.0605210  35.2063270  23.8942580   8.5496350  33.8272600  23.5059000
  13.3954490  35.4340870  21.6594910  13.8362580  35.3785970  20.8116510
  13.1262080  36.3498880  21.7305090  15.2593060  35.0656110  19.6703730
  15.1981460  34.1217330  19.5234750  16.0385090  35.1736200  20.2157190
   6.7287640  37.1504520  19.1261850   5.9162150  36.7761410  18.7857730
   7.2329280  36.3949600  19.4283040  11.2312620  33.8146970  20.3644920
  11.8341990  34.3867180  20.8393440  10.4905610  34.3786410  20.1418820
  14.3747220  34.2168530  15.6385200  14.5697850  35.1151980  15.9052630
  13.5877090  33.9855610  16.1318150   2.5598980  35.5629300  14.6761510
   3.0891740  34.7759100  14.5469460   3.1927300  36.2420490  14.9097040
   4.7536820  35.3004440  17.7306900   4.1239560  34.5991750  17.8977030
   4.2141960  36.0608570  17.5140060   7.6928770  51.9143670  30.4017510
   8.6196080  51.6787940  30.4453470   7.6779200  52.7415670  29.9203540
  15.9273830  51.4569240  17.3991760  16.1026020  50.7706980  16.7552680
  15.2295400  51.9816290  17.0068430   4.8792380  34.5788420  30.1659390
   4.5976650  35.0822020  29.4020210   5.2612080  33.7810170  29.8001520
   3.7701480  51.8464080  14.9527070   4.5020300  51.5623360  14.4050960
   4.0295150  51.6077360  15.8426450   2.9316270  47.9628810  14.9573400
   2.3025150  48.4313910  15.5059230   3.0464100  47.1178030  15.3919590
  11.4807840  33.9942000  30.7439860  11.3673290  34.3136610  31.6391380
  12.2977580  34.3954510  30.4477140  14.2606330  51.1413530  30.2258550
  15.0531650  50.6462760  30.0184510  14.5539480  51.8203670  30.8334160
   8.5184030  43.7913490   2.9883870   7.7426130  43.3113930   3.2782440
   9.1696960  43.1119140   2.8140030   2.5349860  44.1033300   3.8659630
   1.7034740  43.8482010   4.2656140   3.1430840  44.1744070   4.6017550
  12.5391460  48.1973680   1.7683000  12.0772990  47.4260920   2.0970170
  13.3517010  48.2239750   2.2735450   2.5151120  48.1373390   4.0617650
   2.8179160  47.2471130   3.8827870   3.2594710  48.6943610   3.8339900
   7.9593020  46.4670680   2.9954030   7.8901300  45.5260620   2.8343160
   8.7212880  46.5572090   3.5676600   8.9898190  39.2741060   3.2222960
   9.3663010  38.4012940   3.1096630   8.8917700  39.6099760   2.3313400
   4.9610930  40.6153060   3.0165580   5.4689150  41.1134030   3.6570600
   5.4924170  39.8388260   2.8404940  17.0621860  38.7858250   6.7194930
  16.3574030  39.1739960   6.2010040  17.3279780  39.4808540   7.3215860
   3.2447030  35.2551620   7.2829000   3.2465470  35.7724010   6.4774900
   2.4151340  34.7781800   7.2598930   4.4949880  44.8946800   5.4602500
   4.1619260  45.5215720   6.1023570   4.6716560  45.4208680   4.6804170
  13.0083790  38.7091880   2.9278840  12.3039360  38.9976770   3.5081950
  13.3695950  39.5191990   2.5678400   2.9262360  36.9661580   5.2899450
   3.2679170  37.8103630   4.9953320   1.9878170  37.1145320   5.4064790
   3.7068980  46.8627600   7.2751680   4.3242980  47.5378680   6.9936130
   2.8462100  47.2715580   7.1839180  14.6246570  48.3267010   5.1906320
  13.9410090  48.9966120   5.1822990  15.1640860  48.5247660   4.4251180
  16.0770710  38.1546670   3.3188050  15.1295620  38.1885650   3.4503480
  16.4020700  38.9685620   3.7037410  12.1605310  50.1711140   3.9051500
  12.1732470  49.7673430   3.0373760  11.6080530  50.9458430   3.8012930
  11.5590750  45.0740980   5.2334110  11.9759540  44.8601090   4.3987570
  12.2830570  45.3313770   5.8042730  15.5052850  43.4728200   5.3250350
  14.6771480  43.5421290   4.8500480  16.1003330  44.0582510   4.8566180
  12.4694860  40.2597520   6.2705220  12.0566040  41.0851230   6.5245210
  11.7370810  39.6742560   6.0781580   5.0709350  46.7324980   3.2963100
   4.7737640  46.1270450   2.6170880   6.0209170  46.7702290   3.1852460
   3.3156270  39.8200630   4.9122930   3.8670860  39.9295970   4.1376180
   3.8299780  40.1938230   5.6278160  13.1594960  50.3056850   6.9586200
  12.6825520  51.1129040   6.7658810  12.4756750  49.6535180   7.1112410
   4.1627780  46.4706670   9.9470900   3.2656310  46.6946640  10.1944300
   4.1880650  46.5941610   8.9982300   2.9899000  43.3419990   8.5228270
   2.8506770  44.2142790   8.8915670   2.1080360  42.9992800   8.3776210
   4.7879350  49.2841690  10.7313420   4.7594780  49.6884640   9.8641850
   4.6244320  48.3552050  10.5685020  16.7394170  50.0668790  12.0277590
  17.2153890  50.5451680  12.7066670  17.3601330  49.9986280  11.3023090
  16.1427420  47.2581640   9.1877600  16.2690480  47.0193520   8.2694780
  16.1848800  46.4266180   9.6599680  10.0044160  50.9609640   7.7572410
  10.5188830  50.8717650   8.5594840   9.1613240  51.3069340   8.0500320
  15.9951430  39.3114100  10.1527340  15.3795700  39.8193770   9.6242800
  15.6747850  38.4112430  10.0953280   3.7695940  35.2837470   2.0154210
   3.3264090  36.0647010   1.6838730   4.3280930  35.6067360   2.7225150
   8.0565750  38.1505990   7.6189530   7.5945120  38.3589010   8.4309470
   7.6543860  37.3365340   7.3160200  13.0570260  39.3714940   8.7486190
  12.2063850  39.0720690   9.0695260  12.8972050  39.6156950   7.8370010
  10.1519970  40.8716690  10.8484980  10.4773380  40.0380440  10.5087210
  10.9400300  41.3945210  10.9963310   5.8071840  35.8284800   3.8743810
   6.1044170  36.7347630   3.7935830   6.3557400  35.3403580   3.2603380
   6.0009370  41.3056620  10.4095730   5.9052970  40.3651350  10.2596130
   6.8441350  41.5271690  10.0143800   7.7064960  37.8005260  11.6326250
   7.0163280  37.6077460  12.2672340   8.4497260  38.0839900  12.1650550
   9.9827930  41.6403700   4.4680170   9.2509050  42.1490510   4.8170270
   9.5852270  40.8233680   4.1668950   6.4205320  38.3157900   2.8732660
   6.4241380  37.8747850   2.0237200   7.3156440  38.6375230   2.9804480
  10.4453840  37.0937380   3.8803110  10.4626580  37.5446030   4.7244960
  10.1969420  36.1943020   4.0936550  13.8724590  34.5069560   9.7189490
  14.1970360  33.7759220  10.2447470  13.9081100  34.1883200   8.8170480
   6.7213290  42.3759680   4.6198070   7.0883420  41.9018250   5.3659410
   6.5318350  43.2501250   4.9606410   4.5112660  41.4168320   6.9382280
   4.2069730  42.2960300   7.1632640   5.4659120  41.4768110   6.9739720
  13.7982430  44.6194670   3.3275520  14.5181550  45.1149960   2.9371630
  13.5964250  43.9412560   2.6829390   9.1801230  44.6903730   9.2144520
   9.1138540  43.7699400   8.9602110   8.5506370  44.7879170   9.9289160
   3.7689510  42.7155300  10.9693190   3.4689650  42.8612480  10.0721010
   4.5400750  42.1560590  10.8766580   9.1117960  47.5124300   8.9648320
   9.1262500  46.5805260   8.7467230   8.4043060  47.5984060   9.6038090
  15.3229170  44.1531640   8.3116900  14.5977360  44.7460420   8.1146290
  15.8504630  44.1455180   7.5130270   8.5451860  49.1541870   6.0588820
   9.1894080  49.3601250   6.7362240   8.9081300  48.3930270   5.6059670
   9.8183940  47.1574220   4.7766270  10.4606170  46.4567380   4.8898440
  10.3433290  47.9372660   4.5963160  11.5921560  47.9569120   7.9802330
  11.9277800  48.5435810   8.6580250  10.6721900  47.8261830   8.2100120
   7.4210140  48.0060450  11.1490390   7.1007010  47.2869690  11.6936080
   6.7468500  48.6815520  11.2226450  10.6363740  38.2386610   6.5127190
  11.0044560  37.4181820   6.8406760   9.7761940  38.2988500   6.9282840
   7.5965730  40.8926200   6.7365160   8.0950980  41.3672020   7.4017010
   7.7388680  39.9689720   6.9435190  14.8032590  37.1094160   7.5793550
  14.3006190  37.8499560   7.9187360  15.6189250  37.4978160   7.2630340
  15.0980180  49.5236190   2.7009170  15.2227600  50.3467360   3.1732980
  15.9645740  49.3126920   2.3533320   2.5697710  51.6167400   2.3726300
   3.3060190  51.0682860   2.6434870   2.9538630  52.4823410   2.2332290
  10.4120620  46.9093340  11.5087290   9.8058780  46.9324940  10.7683040
  10.1074730  46.1776380  12.0454540  11.8420990  50.6373630  10.1196700
  12.7942740  50.5531650  10.0696940  11.6949210  51.3015340  10.7930490
   6.3491740  44.6957920  10.0383450   5.5837410  45.2642920   9.9538120
   6.5307700  44.4034130   9.1451680  13.4915090  46.4263250  10.5958470
  14.2324560  46.7639010  10.0925930  12.7287770  46.5955310  10.0428240
   3.2682690  40.0108620   9.3672490   2.7379150  39.5199570   8.7395830
   3.9370760  40.4392820   8.8330420  12.1660750  44.4778080   9.1313680
  12.5801770  44.6323160   9.9804100  11.2311750  44.6033300   9.2939460
  12.6382920  41.8174240  11.1352830  13.2203690  41.0626560  11.0473310
  12.8144690  42.3481680  10.3584310   3.7554990  36.9770990   9.4469780
   3.6611860  36.3591740   8.7220650   3.1752380  37.7037280   9.2199690
   6.5216430  35.5344230   6.4797170   6.0733730  35.5568490   5.6342720
   5.8881630  35.1363250   7.0767470   6.9275980  44.4298560   7.1009610
   7.3464090  45.2731290   6.9285850   6.0084610  44.5670600   6.8716390
   9.2639880  42.1614740   8.4847450   9.3836090  41.5655880   9.2242290
  10.1233880  42.1984430   8.0648750  11.6027780  42.7151930   7.0609960
  11.0763000  43.2394550   6.4575100  11.9459120  43.3479320   7.6919690
   4.7783400  50.7351570   8.2167340   4.2404490  51.4597630   7.8976040
   5.0317360  50.2581910   7.4264680   6.0308650  38.7036090   9.7423270
   6.6208340  38.3951940  10.4301090   5.2128890  38.2315840   9.8983170
  10.8502080  38.3201900   9.9756290  10.1617600  37.6583440   9.9106280
  11.5708100  37.8740170  10.4204750   7.6345610  51.9702780   8.4753990
   7.5604310  52.8737920   8.7826360   6.7324450  51.6514680   8.4476060
  15.1625290  49.6664960   8.8046550  14.5627280  49.7257520   8.0610470
  15.2919190  48.7269940   8.9343400  13.8476930  46.3916940   6.9022710
  13.0336770  46.8214100   7.1648500  14.2551130  47.0035350   6.2891760
  15.1967330  41.5305140   8.4291930  14.9653420  41.3017890   7.5289880
  15.4571880  42.4504690   8.3836820  13.6355400  36.7561570  11.2071630
  14.5125580  36.7644970  11.5905630  13.6476240  36.0192410  10.5963980
  15.0818670  40.6091110   2.0959650  15.6056150  40.1153760   1.4649820
  15.6678090  40.7441470   2.8407220  15.2608390  40.6930980   5.6179200
  14.3111100  40.6594520   5.7324190  15.4421400  41.6031090   5.3828970
  14.3471520  34.4419540   7.0272740  14.9843740  35.0553680   7.3931930
  14.4946410  34.4780200   6.0821970   1.8115550  47.5753450  10.5781610
   1.7685180  47.2046360  11.4596070   1.9426560  48.5131020  10.7183430
   5.5121580  49.1313040   6.1791330   5.2712940  49.3987600   5.2921850
   6.4524220  49.3018770   6.2342190   7.7176000  35.5945730   9.9347840
   7.6564890  36.1867560  10.6843250   8.6576380  35.4871690   9.7898100
  10.3550560  35.2515790   9.5740130  10.9690970  35.5695080   8.9121210
  10.9000120  34.7664380  10.1935990  16.7725740  51.1507420   6.9801970
  16.2784020  51.5476290   6.2629100  16.1639030  50.5256630   7.3739250
  11.0958600  33.8147930   5.9009420  10.2218440  34.1483040   5.6982350
  10.9869350  33.3421110   6.7261290  12.0030580  36.0218800   7.2851140
  11.6743940  35.2070560   6.9052870  12.9512880  35.9788610   7.1616830
  14.4565190  51.7930840   4.2588710  13.9968160  52.5446650   3.8846730
  13.8277650  51.0737310   4.2003510   4.8860910  50.1019080   3.4336840
   5.4025930  49.4906440   2.9085100   5.5358290  50.6047860   3.9247850
   7.6256410  50.9927570   4.2605820   7.9134220  50.7381870   3.3838830
   8.1379630  50.4404930   4.8511390   8.8433420  34.7317770   4.8402330
   8.0605210  35.2063270   5.1199090   8.5496350  33.8272600   4.7315510
  13.3954490  35.4340870   2.8851420  13.8362580  35.3785970   2.0373020
  13.1262080  36.3498880   2.9561600   7.6928770  51.9143670  11.6274020
   8.6196080  51.6787940  11.6709980   7.6779200  52.7415670  11.1460050
   4.8792380  34.5788420  11.3915900   4.5976650  35.0822020  10.6276720
   5.2612080  33.7810170  11.0258030  11.4807840  33.9942000  11.9696370
  11.3673290  34.3136610  12.8647890  12.2977580  34.3954510  11.6733650
  14.2606330  51.1413530  11.4515060  15.0531650  50.6462760  11.2441020
  14.5539480  51.8203670  12.0590670  10.3865990  23.2390980  57.4305070
  10.3060040  22.3245590  57.1596780   9.9730410  23.7358050  56.7244780
   8.5184030  25.0170000  59.3114340   7.7426130  24.5370440  59.6012910
   9.1696960  24.3375650  59.1370500  12.5391460  29.4230190  58.0913470
  12.0772990  28.6517430  58.4200640  13.3517010  29.4496260  58.5965920
   8.7654770  31.7088200  57.7117460   8.1466210  32.1645700  57.1411900
   9.6206550  31.8639660  57.3107160   7.9593020  27.6927190  59.3184500
   7.8901300  26.7517130  59.1573630   8.7212880  27.7828600  59.8907070
   8.9898190  20.4997570  59.5453430   9.3663010  19.6269450  59.4327100
   8.8917700  20.8356270  58.6543870   3.1203200  18.8723200  55.0070870
   3.2269950  19.7726930  55.3139630   2.2095560  18.8241170  54.7165520
  12.7722310  17.9948010  56.4781770  13.5931930  17.5044580  56.5207250
  12.8056390  18.5845670  57.2313610   4.9610930  21.8409570  59.3396050
   5.4689150  22.3390540  59.9801070   5.4924170  21.0644770  59.1635410
   9.6318120  26.5927440  55.1049370   9.0135390  27.0576890  54.5412090
  10.1441370  27.2854920  55.5218880  13.0083790  19.9348390  59.2509310
  12.3039360  20.2233280  59.8312420  13.3695950  20.7448500  58.8908870
  16.0770710  19.3803180  59.6418520  15.1295620  19.4142160  59.7733950
  16.4020700  20.1942130  60.0267880   6.6090250  15.6800360  57.9374510
   6.9165230  15.1247250  57.2210010   5.6790950  15.8144820  57.7547500
  12.1605310  31.3967650  60.2281970  12.1732470  30.9929940  59.3604230
  11.6080530  32.1714940  60.1243400  13.4550730  28.1183870  55.3172140
  13.3447060  27.1758200  55.4421560  13.4518980  28.4799510  56.2034900
   8.9971010  23.7449190  54.6734630   8.0700290  23.6786570  54.9023100
   9.1495830  24.6829320  54.5589870   8.9840090  20.0166190  51.6701790
   8.0443760  20.1780150  51.7554250   9.3023350  20.7351870  51.1237780
  13.0268300  25.3069490  55.1769880  12.4080720  24.9689040  54.5296180
  13.0092750  24.6629250  55.8849070   4.6027650  24.2713930  57.4554360
   4.1984650  23.5591180  56.9600260   4.6890770  23.9267170  58.3442400
   5.0709350  27.9581490  59.6193570   4.7737640  27.3526960  58.9401350
   6.0209170  27.9958800  59.5082930  11.2033000  24.5456300  52.1842630
  11.6426280  23.7078730  52.0380450  11.9161420  25.1785700  52.2706770
   9.3128380  29.4852370  56.1523870   9.7524290  30.2276700  55.7379260
   9.2515270  29.7278940  57.0762830  14.7850140  15.7999110  50.4983670
  14.4722800  15.8925940  51.3982740  15.5462610  16.3780140  50.4481100
  11.9798560  32.4721490  53.5086880  11.8199700  32.1824430  54.4068710
  11.8145270  31.6961620  52.9732110   4.4586940  32.2520020  55.2858500
   4.2829420  31.3355560  55.0726300   3.6042680  32.6107310  55.5256300
  11.6824690  29.9809050  52.0684880  10.9889850  29.9786340  51.4087160
  12.4247550  29.5568370  51.6379050  11.2474620  31.6071760  56.1433370
  11.7031570  30.8261140  56.4571990  11.5867140  32.3178580  56.6874550
   3.7695940  16.5093980  58.3384680   3.3264090  17.2903520  58.0069200
   4.3280930  16.8323870  59.0455620   6.8854760  16.1304680  53.2190510
   6.2608940  16.1264550  53.9443820   6.7984880  15.2635640  52.8226480
   5.8071840  17.0541310  60.1974280   6.1044170  17.9604140  60.1166300
   6.3557400  16.5660090  59.5833850   3.5610160  21.6327550  56.0665930
   3.3351080  21.4164720  56.9712550   2.7802690  22.0656010  55.7211900
  10.7907920  21.6390920  54.6656580  10.1916810  22.3626720  54.4820200
  11.3387530  21.5767700  53.8833030   9.3972790  20.2754460  56.6959860
   9.7902360  20.5926660  55.8828550   9.7589640  19.3966340  56.8104380
   6.4205320  19.5414410  59.1963130   6.4241380  19.1004360  58.3467670
   7.3156440  19.8631740  59.3034950   6.4825470  20.5426490  52.1869890
   6.6038290  20.5012970  53.1355710   6.0973980  21.4050640  52.0316620
   5.4946970  22.8527630  51.5853190   4.9263870  22.4045880  50.9589100
   6.2035970  23.2120410  51.0518340   3.0394450  26.8485820  53.8579600
   2.2656710  26.3083440  53.6978320   3.7689080  26.3292430  53.5197360
  13.7982430  25.8451180  59.6505990  14.5181550  26.3406470  59.2602100
  13.5964250  25.1669070  59.0059860   9.2592370  17.2389140  53.7935380
   8.4456980  16.7402310  53.7180690   9.0654320  18.0787390  53.3771730
  11.9740760  21.6108790  52.0897540  12.8620380  21.9226020  51.9148880
  11.9445850  20.7381040  51.6978120   3.0831850  26.5166200  57.4958410
   3.6010520  25.7134460  57.4415300   2.6315870  26.4545340  58.3375240
   7.9701350  27.7832480  52.7685710   8.3117050  28.5274710  52.2729030
   7.1414060  28.0963600  53.1310540  14.2455030  22.9220630  51.5577400
  14.1618750  23.3534850  50.7073840  14.9649220  23.3818980  51.9904220
  15.2742280  29.7762890  54.2859530  14.6318440  29.1218510  54.5603250
  14.8872940  30.1817980  53.5100200  10.8528760  27.1048320  58.1331220
  11.2052580  26.5076450  57.4732590   9.9691090  26.7792550  58.3039470
   6.9392040  27.8646010  55.5401630   7.6263170  28.4115220  55.9209220
   6.1524460  28.4086740  55.5751240   6.2419250  24.8692040  55.1526990
   6.6982030  25.6797290  55.3787180   5.8907460  24.5515180  55.9845480
  13.6639660  28.6679350  50.8235880  13.4377240  27.9509790  51.4160520
  13.2735860  28.4191790  49.9857630  13.2455910  26.5851290  52.4850040
  12.9577610  27.0463980  53.2727920  14.0408080  26.1249060  52.7534260
   5.4624310  30.0777410  52.4154010   5.4534410  30.8107100  51.7998520
   4.5422670  29.8308990  52.5080970  14.0025770  18.4200060  53.6445220
  13.3738930  18.5245730  52.9303450  13.5077690  18.6396840  54.4339100
   8.4483910  30.1405650  51.0779200   8.5495890  29.9369640  50.1481180
   7.5485650  29.8863930  51.2826980   5.9709800  20.6986010  55.0603100
   5.2625950  21.1672350  55.5016710   6.2554280  20.0408020  55.6948290
  10.0025230  17.4236670  56.4998890   9.8793010  17.4422800  55.5508400
  10.9509790  17.4715610  56.6197290   7.0902020  32.6591970  55.7726870
   7.3443520  32.6213360  54.8506240   6.1414500  32.5325300  55.7655120
   4.1744820  19.0071090  52.4353810   5.0235350  19.4441240  52.3694000
   3.8076090  19.3191350  53.2625870  13.0954600  23.5783850  57.3485380
  12.1544740  23.5934080  57.5233070  13.4098670  22.7919810  57.7945680
   3.0736240  25.2603450  50.9089340   3.8399510  25.1484810  51.4714770
   3.1510930  24.5641420  50.2566110   1.7683000  22.6928520  51.5922230
   1.8486590  21.7456030  51.7039630   2.6602750  23.0235400  51.6982890
  15.0980180  30.7492700  59.0239640  15.2227600  31.5723870  59.4963450
  15.9645740  30.5383430  58.6763790   2.5697710  32.8423910  58.6956770
   3.3060190  32.2939370  58.9665340   2.9538630  33.7079920  58.5562760
   5.6800020  32.0154220  50.5182340   6.4728630  32.3043050  50.0664130
   5.1604370  31.5846390  49.8394820  14.7330190  31.2424350  51.9419080
  14.4471700  30.8289490  51.1273260  14.5349740  32.1712060  51.8219600
   6.1977420  27.2357630  50.3824690   6.0928060  26.6209980  51.1086070
   6.0301640  26.7123520  49.5987700   9.4380150  26.2977660  50.9866680
   8.8890250  26.7446960  51.6309420  10.0599410  25.7926910  51.5104350
   5.1055270  25.2568580  52.8831980   5.5271690  25.0908450  53.7263370
   5.2306110  24.4468810  52.3887120   7.6182910  24.2806190  50.1309080
   8.1388570  23.5655210  49.7650230   8.2651310  24.9192060  50.4309590
   4.0014170  21.3301810  49.8290140   3.8003230  20.4669170  50.1903480
   3.8306220  21.2435170  48.8911740  11.4802480  16.1410040  52.3577020
  11.7604770  15.2977940  52.7136440  10.7068210  16.3733150  52.8715770
   2.7996970  18.4302430  49.8168020   3.1022870  18.4369860  48.9087170
   3.5391560  18.0800290  50.3135680   6.0181900  17.3737050  50.8024220
   5.6703900  16.6961040  50.2226670   6.2194670  16.9126560  51.6167610
   8.1830940  32.3617800  52.4210820   9.0781730  32.7002770  52.4429580
   8.2148570  31.6397210  51.7935100   1.8227100  27.7344850  50.6497820
   2.2601970  28.2774520  51.3055400   2.3074830  26.9091800  50.6594160
   3.6334820  28.8542890  55.7620050   3.3330360  28.7307860  56.6623960
   3.5272310  27.9951480  55.3535780  16.4026740  28.6339290  50.4646730
  15.5719700  28.7015940  50.9353960  16.5798570  29.5243410  50.1613590
  15.8583200  25.3786770  52.9680930  16.6202110  25.9483420  53.0740620
  15.8737570  24.8113970  53.7389240  16.8643170  26.2336870  57.8122860
  17.2352000  25.4504190  57.4058830  17.5045100  26.9225970  57.6340160
  15.9102370  25.6721140  50.1253450  16.1851210  26.5800020  49.9972670
  15.7213110  25.6083670  51.0615440  12.3077980  18.6965990  51.4207080
  12.7262860  18.5096970  50.5803740  12.0014040  17.8445040  51.7310010
  15.8067710  23.6090130  55.1182880  15.4311310  22.8418060  54.6864170
  15.0770830  23.9912830  55.6057810  15.0818670  21.8347620  58.4190120
  15.6056150  21.3410270  57.7880290  15.6678090  21.9697980  59.1637690
  14.5718640  21.0920970  54.3582530  15.0677760  20.8591840  55.1431410
  14.3734710  20.2532810  53.9420170  16.0005800  19.7281920  56.8920210
  15.8905080  19.5737960  57.8302480  16.7613390  19.2002860  56.6495620
  16.8896070  17.5589840  50.1326350  17.8145380  17.4271020  49.9244640
  16.8671860  17.6382660  51.0862800  16.9634560  18.3300500  52.7583060
  16.1686060  18.2645620  53.2875970  17.1677840  19.2651140  52.7468410
  13.9052980  32.3692050  56.7521450  14.5012050  32.0476620  56.0755870
  14.1631130  31.8963870  57.5434720   4.8860910  31.3275590  59.7567310
   5.4025930  30.7162950  59.2315570   5.5358290  31.8304370  60.2478320
  13.3954490  16.6597380  59.2081890  13.8362580  16.6042480  58.3603490
  13.1262080  17.5755390  59.2792070  15.2593060  16.2912620  57.2190710
  15.1981460  15.3473840  57.0721730  16.0385090  16.3992710  57.7644170
   6.7287640  18.3761030  56.6748830   5.9162150  18.0017920  56.3344710
   7.2329280  17.6206110  56.9770020  11.2312620  15.0403480  57.9131900
  11.8341990  15.6123690  58.3880420  10.4905610  15.6042920  57.6905800
  14.3747220  15.4425040  53.1872180  14.5697850  16.3408490  53.4539610
  13.5877090  15.2112120  53.6805130   2.5598980  16.7885810  52.2248490
   3.0891740  16.0015610  52.0956440   3.1927300  17.4677000  52.4584020
   4.7536820  16.5260950  55.2793880   4.1239560  15.8248260  55.4464010
   4.2141960  17.2865080  55.0627040  15.9273830  32.6825750  54.9478740
  16.1026020  31.9963490  54.3039660  15.2295400  33.2072800  54.5555410
   3.7701480  33.0720590  52.5014050   4.5020300  32.7879870  51.9537940
   4.0295150  32.8333870  53.3913430   2.9316270  29.1885320  52.5060380
   2.3025150  29.6570420  53.0546210   3.0464100  28.3434540  52.9406570
  10.3865990  23.2390980  38.6561580  10.3060040  22.3245590  38.3853290
   9.9730410  23.7358050  37.9501290   8.5184030  25.0170000  40.5370850
   7.7426130  24.5370440  40.8269420   9.1696960  24.3375650  40.3627010
   2.5349860  25.3289810  41.4146610   1.7034740  25.0738520  41.8143120
   3.1430840  25.4000580  42.1504530   2.5151120  29.3629900  41.6104630
   2.8179160  28.4727640  41.4314850   3.2594710  29.9200120  41.3826880
   8.7654770  31.7088200  38.9373970   8.1466210  32.1645700  38.3668410
   9.6206550  31.8639660  38.5363670   7.9593020  27.6927190  40.5441010
   7.8901300  26.7517130  40.3830140   8.7212880  27.7828600  41.1163580
   8.9898190  20.4997570  40.7709940   9.3663010  19.6269450  40.6583610
   8.8917700  20.8356270  39.8800380   3.1203200  18.8723200  36.2327380
   3.2269950  19.7726930  36.5396140   2.2095560  18.8241170  35.9422030
  12.7722310  17.9948010  37.7038280  13.5931930  17.5044580  37.7463760
  12.8056390  18.5845670  38.4570120   4.9610930  21.8409570  40.5652560
   5.4689150  22.3390540  41.2057580   5.4924170  21.0644770  40.3891920
   3.2447030  16.4808130  44.8315980   3.2465470  16.9980520  44.0261880
   2.4151340  16.0038310  44.8085910   9.6318120  26.5927440  36.3305880
   9.0135390  27.0576890  35.7668600  10.1441370  27.2854920  36.7475390
   4.4949880  26.1203310  43.0089480   4.1619260  26.7472230  43.6510550
   4.6716560  26.6465190  42.2291150  13.0083790  19.9348390  40.4765820
  12.3039360  20.2233280  41.0568930  13.3695950  20.7448500  40.1165380
   2.9262360  18.1918090  42.8386430   3.2679170  19.0360140  42.5440300
   1.9878170  18.3401830  42.9551770   3.7068980  28.0884110  44.8238660
   4.3242980  28.7635190  44.5423110   2.8462100  28.4972090  44.7326160
  16.0770710  19.3803180  40.8675030  15.1295620  19.4142160  40.9990460
  16.4020700  20.1942130  41.2524390   6.6090250  15.6800360  39.1631020
   6.9165230  15.1247250  38.4466520   5.6790950  15.8144820  38.9804010
  11.5590750  26.2997490  42.7821090  11.9759540  26.0857600  41.9474550
  12.2830570  26.5570280  43.3529710   8.9971010  23.7449190  35.8991140
   8.0700290  23.6786570  36.1279610   9.1495830  24.6829320  35.7846380
   8.9840090  20.0166190  32.8958300   8.0443760  20.1780150  32.9810760
   9.3023350  20.7351870  32.3494290  13.0268300  25.3069490  36.4026390
  12.4080720  24.9689040  35.7552690  13.0092750  24.6629250  37.1105580
  12.4694860  21.4854030  43.8192200  12.0566040  22.3107740  44.0732190
  11.7370810  20.8999070  43.6268560   4.6027650  24.2713930  38.6810870
   4.1984650  23.5591180  38.1856770   4.6890770  23.9267170  39.5698910
   5.0709350  27.9581490  40.8450080   4.7737640  27.3526960  40.1657860
   6.0209170  27.9958800  40.7339440   3.3156270  21.0457140  42.4609910
   3.8670860  21.1552480  41.6863160   3.8299780  21.4194740  43.1765140
   4.1627780  27.6963180  47.4957880   3.2656310  27.9203150  47.7431280
   4.1880650  27.8198120  46.5469280  11.2033000  24.5456300  33.4099140
  11.6426280  23.7078730  33.2636960  11.9161420  25.1785700  33.4963280
   2.9899000  24.5676500  46.0715250   2.8506770  25.4399300  46.4402650
   2.1080360  24.2249310  45.9263190   9.3128380  29.4852370  37.3780380
   9.7524290  30.2276700  36.9635770   9.2515270  29.7278940  38.3019340
   4.7879350  30.5098200  48.2800400   4.7594780  30.9141150  47.4128830
   4.6244320  29.5808560  48.1172000  14.7850140  15.7999110  31.7240180
  14.4722800  15.8925940  32.6239250  15.5462610  16.3780140  31.6737610
  16.7394170  31.2925300  49.5764570  17.2153890  31.7708190  50.2553650
  17.3601330  31.2242790  48.8510070  10.0044160  32.1866150  45.3059390
  10.5188830  32.0974160  46.1081820   9.1613240  32.5325850  45.5987300
  11.9798560  32.4721490  34.7343390  11.8199700  32.1824430  35.6325220
  11.8145270  31.6961620  34.1988620   4.4586940  32.2520020  36.5115010
   4.2829420  31.3355560  36.2982810   3.6042680  32.6107310  36.7512810
  11.6824690  29.9809050  33.2941390  10.9889850  29.9786340  32.6343670
  12.4247550  29.5568370  32.8635560  11.2474620  31.6071760  37.3689880
  11.7031570  30.8261140  37.6828500  11.5867140  32.3178580  37.9131060
  15.9951430  20.5370610  47.7014320  15.3795700  21.0450280  47.1729780
  15.6747850  19.6368940  47.6440260   3.7695940  16.5093980  39.5641190
   3.3264090  17.2903520  39.2325710   4.3280930  16.8323870  40.2712130
   8.0565750  19.3762500  45.1676510   7.5945120  19.5845520  45.9796450
   7.6543860  18.5621850  44.8647180  13.0570260  20.5971450  46.2973170
  12.2063850  20.2977200  46.6182240  12.8972050  20.8413460  45.3856990
  10.1519970  22.0973200  48.3971960  10.4773380  21.2636950  48.0574190
  10.9400300  22.6201720  48.5450290   6.8854760  16.1304680  34.4447020
   6.2608940  16.1264550  35.1700330   6.7984880  15.2635640  34.0482990
   5.8071840  17.0541310  41.4230790   6.1044170  17.9604140  41.3422810
   6.3557400  16.5660090  40.8090360   3.5610160  21.6327550  37.2922440
   3.3351080  21.4164720  38.1969060   2.7802690  22.0656010  36.9468410
  10.7907920  21.6390920  35.8913090  10.1916810  22.3626720  35.7076710
  11.3387530  21.5767700  35.1089540   6.0009370  22.5313130  47.9582710
   5.9052970  21.5907860  47.8083110   6.8441350  22.7528200  47.5630780
   9.3972790  20.2754460  37.9216370   9.7902360  20.5926660  37.1085060
   9.7589640  19.3966340  38.0360890   7.7064960  19.0261770  49.1813230
   7.0163280  18.8333970  49.8159320   8.4497260  19.3096410  49.7137530
   9.9827930  22.8660210  42.0167150   9.2509050  23.3747020  42.3657250
   9.5852270  22.0490190  41.7155930   6.4205320  19.5414410  40.4219640
   6.4241380  19.1004360  39.5724180   7.3156440  19.8631740  40.5291460
   6.4825470  20.5426490  33.4126400   6.6038290  20.5012970  34.3612220
   6.0973980  21.4050640  33.2573130  10.4453840  18.3193890  41.4290090
  10.4626580  18.7702540  42.2731940  10.1969420  17.4199530  41.6423530
   5.4946970  22.8527630  32.8109700   4.9263870  22.4045880  32.1845610
   6.2035970  23.2120410  32.2774850  13.8724590  15.7326070  47.2676470
  14.1970360  15.0015730  47.7934450  13.9081100  15.4139710  46.3657460
   6.7213290  23.6016190  42.1685050   7.0883420  23.1274760  42.9146390
   6.5318350  24.4757760  42.5093390   4.5112660  22.6424830  44.4869260
   4.2069730  23.5216810  44.7119620   5.4659120  22.7024620  44.5226700
   3.0394450  26.8485820  35.0836110   2.2656710  26.3083440  34.9234830
   3.7689080  26.3292430  34.7453870   9.2592370  17.2389140  35.0191890
   8.4456980  16.7402310  34.9437200   9.0654320  18.0787390  34.6028240
   9.1801230  25.9160240  46.7631500   9.1138540  24.9955910  46.5089090
   8.5506370  26.0135680  47.4776140  11.9740760  21.6108790  33.3154050
  12.8620380  21.9226020  33.1405390  11.9445850  20.7381040  32.9234630
   3.0831850  26.5166200  38.7214920   3.6010520  25.7134460  38.6671810
   2.6315870  26.4545340  39.5631750   7.9701350  27.7832480  33.9942220
   8.3117050  28.5274710  33.4985540   7.1414060  28.0963600  34.3567050
   3.7689510  23.9411810  48.5180170   3.4689650  24.0868990  47.6207990
   4.5400750  23.3817100  48.4253560   9.1117960  28.7380810  46.5135300
   9.1262500  27.8061770  46.2954210   8.4043060  28.8240570  47.1525070
  14.2455030  22.9220630  32.7833910  14.1618750  23.3534850  31.9330350
  14.9649220  23.3818980  33.2160730  10.8528760  27.1048320  39.3587730
  11.2052580  26.5076450  38.6989100   9.9691090  26.7792550  39.5295980
   6.9392040  27.8646010  36.7658140   7.6263170  28.4115220  37.1465730
   6.1524460  28.4086740  36.8007750   6.2419250  24.8692040  36.3783500
   6.6982030  25.6797290  36.6043690   5.8907460  24.5515180  37.2101990
   8.5451860  30.3798380  43.6075800   9.1894080  30.5857760  44.2849220
   8.9081300  29.6186780  43.1546650   9.8183940  28.3830730  42.3253250
  10.4606170  27.6823890  42.4385420  10.3433290  29.1629170  42.1450140
  11.5921560  29.1825630  45.5289310  11.9277800  29.7692320  46.2067230
  10.6721900  29.0518340  45.7587100   7.4210140  29.2316960  48.6977370
   7.1007010  28.5126200  49.2423060   6.7468500  29.9072030  48.7713430
   5.4624310  30.0777410  33.6410520   5.4534410  30.8107100  33.0255030
   4.5422670  29.8308990  33.7337480  10.6363740  19.4643120  44.0614170
  11.0044560  18.6438330  44.3893740   9.7761940  19.5245010  44.4769820
  14.0025770  18.4200060  34.8701730  13.3738930  18.5245730  34.1559960
  13.5077690  18.6396840  35.6595610   8.4483910  30.1405650  32.3035710
   8.5495890  29.9369640  31.3737690   7.5485650  29.8863930  32.5083490
   5.9709800  20.6986010  36.2859610   5.2625950  21.1672350  36.7273220
   6.2554280  20.0408020  36.9204800   7.5965730  22.1182710  44.2852140
   8.0950980  22.5928530  44.9503990   7.7388680  21.1946230  44.4922170
  10.0025230  17.4236670  37.7255400   9.8793010  17.4422800  36.7764910
  10.9509790  17.4715610  37.8453800   7.0902020  32.6591970  36.9983380
   7.3443520  32.6213360  36.0762750   6.1414500  32.5325300  36.9911630
   4.1744820  19.0071090  33.6610320   5.0235350  19.4441240  33.5950510
   3.8076090  19.3191350  34.4882380   3.0736240  25.2603450  32.1345850
   3.8399510  25.1484810  32.6971280   3.1510930  24.5641420  31.4822620
   1.7683000  22.6928520  32.8178740   1.8486590  21.7456030  32.9296140
   2.6602750  23.0235400  32.9239400   2.5697710  32.8423910  39.9213280
   3.3060190  32.2939370  40.1921850   2.9538630  33.7079920  39.7819270
   5.6800020  32.0154220  31.7438850   6.4728630  32.3043050  31.2920640
   5.1604370  31.5846390  31.0651330  10.4120620  28.1349850  49.0574270
   9.8058780  28.1581450  48.3170020  10.1074730  27.4032890  49.5941520
  11.8420990  31.8630140  47.6683680  12.7942740  31.7788160  47.6183920
  11.6949210  32.5271850  48.3417470   6.1977420  27.2357630  31.6081200
   6.0928060  26.6209980  32.3342580   6.0301640  26.7123520  30.8244210
   6.3491740  25.9214430  47.5870430   5.5837410  26.4899430  47.5025100
   6.5307700  25.6290640  46.6938660   9.4380150  26.2977660  32.2123190
   8.8890250  26.7446960  32.8565930  10.0599410  25.7926910  32.7360860
  13.4915090  27.6519760  48.1445450  14.2324560  27.9895520  47.6412910
  12.7287770  27.8211820  47.5915220   5.1055270  25.2568580  34.1088490
   5.5271690  25.0908450  34.9519880   5.2306110  24.4468810  33.6143630
   3.2682690  21.2365130  46.9159470   2.7379150  20.7456080  46.2882810
   3.9370760  21.6649330  46.3817400   7.6182910  24.2806190  31.3565590
   8.1388570  23.5655210  30.9906740   8.2651310  24.9192060  31.6566100
  12.1660750  25.7034590  46.6800660  12.5801770  25.8579670  47.5291080
  11.2311750  25.8289810  46.8426440  12.6382920  23.0430750  48.6839810
  13.2203690  22.2883070  48.5960290  12.8144690  23.5738190  47.9071290
   3.7554990  18.2027500  46.9956760   3.6611860  17.5848250  46.2707630
   3.1752380  18.9293790  46.7686670   6.5216430  16.7600740  44.0284150
   6.0733730  16.7825000  43.1829700   5.8881630  16.3619760  44.6254450
   6.9275980  25.6555070  44.6496590   7.3464090  26.4987800  44.4772830
   6.0084610  25.7927110  44.4203370   9.2639880  23.3871250  46.0334430
   9.3836090  22.7912390  46.7729270  10.1233880  23.4240940  45.6135730
  11.6027780  23.9408440  44.6096940  11.0763000  24.4651060  44.0062080
  11.9459120  24.5735830  45.2406670   4.0014170  21.3301810  31.0546650
   3.8003230  20.4669170  31.4159990   3.8306220  21.2435170  30.1168250
   4.7783400  31.9608080  45.7654320   4.2404490  32.6854140  45.4463020
   5.0317360  31.4838420  44.9751660   6.0308650  19.9292600  47.2910250
   6.6208340  19.6208450  47.9788070   5.2128890  19.4572350  47.4470150
  10.8502080  19.5458410  47.5243270  10.1617600  18.8839950  47.4593260
  11.5708100  19.0996680  47.9691730  11.4802480  16.1410040  33.5833530
  11.7604770  15.2977940  33.9392950  10.7068210  16.3733150  34.0972280
   2.7996970  18.4302430  31.0424530   3.1022870  18.4369860  30.1343680
   3.5391560  18.0800290  31.5392190   7.6345610  33.1959290  46.0240970
   7.5604310  34.0994430  46.3313340   6.7324450  32.8771190  45.9963040
   6.0181900  17.3737050  32.0280730   5.6703900  16.6961040  31.4483180
   6.2194670  16.9126560  32.8424120   8.1830940  32.3617800  33.6467330
   9.0781730  32.7002770  33.6686090   8.2148570  31.6397210  33.0191610
   1.8227100  27.7344850  31.8754330   2.2601970  28.2774520  32.5311910
   2.3074830  26.9091800  31.8850670   3.6334820  28.8542890  36.9876560
   3.3330360  28.7307860  37.8880470   3.5272310  27.9951480  36.5792290
  13.8476930  27.6173450  44.4509690  13.0336770  28.0470610  44.7135480
  14.2551130  28.2291860  43.8378740  12.3077980  18.6965990  32.6463590
  12.7262860  18.5096970  31.8060250  12.0014040  17.8445040  32.9566520
  15.8067710  23.6090130  36.3439390  15.4311310  22.8418060  35.9120680
  15.0770830  23.9912830  36.8314320  13.6355400  17.9818080  48.7558610
  14.5125580  17.9901480  49.1392610  13.6476240  17.2448920  48.1450960
  14.5718640  21.0920970  35.5839040  15.0677760  20.8591840  36.3687920
  14.3734710  20.2532810  35.1676680  16.0005800  19.7281920  38.1176720
  15.8905080  19.5737960  39.0558990  16.7613390  19.2002860  37.8752130
  14.3471520  15.6676050  44.5759720  14.9843740  16.2810190  44.9418910
  14.4946410  15.7036710  43.6308950  16.8896070  17.5589840  31.3582860
  17.8145380  17.4271020  31.1501150  16.8671860  17.6382660  32.3119310
  16.9634560  18.3300500  33.9839570  16.1686060  18.2645620  34.5132480
  17.1677840  19.2651140  33.9724920   1.8115550  28.8009960  48.1268590
   1.7685180  28.4302870  49.0083050   1.9426560  29.7387530  48.2670410
   5.5121580  30.3569550  43.7278310   5.2712940  30.6244110  42.8408830
   6.4524220  30.5275280  43.7829170   7.7176000  16.8202240  47.4834820
   7.6564890  17.4124070  48.2330230   8.6576380  16.7128200  47.3385080
  10.3550560  16.4772300  47.1227110  10.9690970  16.7951590  46.4608190
  10.9000120  15.9920890  47.7422970  11.0958600  15.0404440  43.4496400
  10.2218440  15.3739550  43.2469330  10.9869350  14.5677620  44.2748270
  12.0030580  17.2475310  44.8338120  11.6743940  16.4327070  44.4539850
  12.9512880  17.2045120  44.7103810   4.8860910  31.3275590  40.9823820
   5.4025930  30.7162950  40.4572080   5.5358290  31.8304370  41.4734830
   7.6256410  32.2184080  41.8092800   7.9134220  31.9638380  40.9325810
   8.1379630  31.6661440  42.3998370   8.8433420  15.9574280  42.3889310
   8.0605210  16.4319780  42.6686070   8.5496350  15.0529110  42.2802490
  13.3954490  16.6597380  40.4338400  13.8362580  16.6042480  39.5860000
  13.1262080  17.5755390  40.5048580  15.2593060  16.2912620  38.4447220
  15.1981460  15.3473840  38.2978240  16.0385090  16.3992710  38.9900680
   6.7287640  18.3761030  37.9005340   5.9162150  18.0017920  37.5601220
   7.2329280  17.6206110  38.2026530  11.2312620  15.0403480  39.1388410
  11.8341990  15.6123690  39.6136930  10.4905610  15.6042920  38.9162310
  14.3747220  15.4425040  34.4128690  14.5697850  16.3408490  34.6796120
  13.5877090  15.2112120  34.9061640   2.5598980  16.7885810  33.4505000
   3.0891740  16.0015610  33.3212950   3.1927300  17.4677000  33.6840530
   4.7536820  16.5260950  36.5050390   4.1239560  15.8248260  36.6720520
   4.2141960  17.2865080  36.2883550   7.6928770  33.1400180  49.1761000
   8.6196080  32.9044450  49.2196960   7.6779200  33.9672180  48.6947030
   4.8792380  15.8044930  48.9402880   4.5976650  16.3078530  48.1763700
   5.2612080  15.0066680  48.5745010   3.7701480  33.0720590  33.7270560
   4.5020300  32.7879870  33.1794450   4.0295150  32.8333870  34.6169940
   2.9316270  29.1885320  33.7316890   2.3025150  29.6570420  34.2802720
   3.0464100  28.3434540  34.1663080  11.4807840  15.2198510  49.5183350
  11.3673290  15.5393120  50.4134870  12.2977580  15.6211020  49.2220630
  14.2606330  32.3670040  49.0002040  15.0531650  31.8719270  48.7928000
  14.5539480  33.0460180  49.6077650  10.3865990  23.2390980  19.8818090
  10.3060040  22.3245590  19.6109800   9.9730410  23.7358050  19.1757800
   8.5184030  25.0170000  21.7627360   7.7426130  24.5370440  22.0525930
   9.1696960  24.3375650  21.5883520   2.5349860  25.3289810  22.6403120
   1.7034740  25.0738520  23.0399630   3.1430840  25.4000580  23.3761040
  12.5391460  29.4230190  20.5426490  12.0772990  28.6517430  20.8713660
  13.3517010  29.4496260  21.0478940   2.5151120  29.3629900  22.8361140
   2.8179160  28.4727640  22.6571360   3.2594710  29.9200120  22.6083390
   8.7654770  31.7088200  20.1630480   8.1466210  32.1645700  19.5924920
   9.6206550  31.8639660  19.7620180   7.9593020  27.6927190  21.7697520
   7.8901300  26.7517130  21.6086650   8.7212880  27.7828600  22.3420090
   8.9898190  20.4997570  21.9966450   9.3663010  19.6269450  21.8840120
   8.8917700  20.8356270  21.1056890   3.1203200  18.8723200  17.4583890
   3.2269950  19.7726930  17.7652650   2.2095560  18.8241170  17.1678540
  12.7722310  17.9948010  18.9294790  13.5931930  17.5044580  18.9720270
  12.8056390  18.5845670  19.6826630   4.9610930  21.8409570  21.7909070
   5.4689150  22.3390540  22.4314090   5.4924170  21.0644770  21.6148430
  17.0621860  20.0114760  25.4938420  16.3574030  20.3996470  24.9753530
  17.3279780  20.7065050  26.0959350   3.2447030  16.4808130  26.0572490
   3.2465470  16.9980520  25.2518390   2.4151340  16.0038310  26.0342420
   9.6318120  26.5927440  17.5562390   9.0135390  27.0576890  16.9925110
  10.1441370  27.2854920  17.9731900   4.4949880  26.1203310  24.2345990
   4.1619260  26.7472230  24.8767060   4.6716560  26.6465190  23.4547660
  13.0083790  19.9348390  21.7022330  12.3039360  20.2233280  22.2825440
  13.3695950  20.7448500  21.3421890   2.9262360  18.1918090  24.0642940
   3.2679170  19.0360140  23.7696810   1.9878170  18.3401830  24.1808280
   3.7068980  28.0884110  26.0495170   4.3242980  28.7635190  25.7679620
   2.8462100  28.4972090  25.9582670  14.6246570  29.5523520  23.9649810
  13.9410090  30.2222630  23.9566480  15.1640860  29.7504170  23.1994670
  16.0770710  19.3803180  22.0931540  15.1295620  19.4142160  22.2246970
  16.4020700  20.1942130  22.4780900   6.6090250  15.6800360  20.3887530
   6.9165230  15.1247250  19.6723030   5.6790950  15.8144820  20.2060520
  12.1605310  31.3967650  22.6794990  12.1732470  30.9929940  21.8117250
  11.6080530  32.1714940  22.5756420  13.4550730  28.1183870  17.7685160
  13.3447060  27.1758200  17.8934580  13.4518980  28.4799510  18.6547920
  11.5590750  26.2997490  24.0077600  11.9759540  26.0857600  23.1731060
  12.2830570  26.5570280  24.5786220   8.9971010  23.7449190  17.1247650
   8.0700290  23.6786570  17.3536120   9.1495830  24.6829320  17.0102890
   8.9840090  20.0166190  14.1214810   8.0443760  20.1780150  14.2067270
   9.3023350  20.7351870  13.5750800  15.5052850  24.6984710  24.0993840
  14.6771480  24.7677800  23.6243970  16.1003330  25.2839020  23.6309670
  13.0268300  25.3069490  17.6282900  12.4080720  24.9689040  16.9809200
  13.0092750  24.6629250  18.3362090  12.4694860  21.4854030  25.0448710
  12.0566040  22.3107740  25.2988700  11.7370810  20.8999070  24.8525070
   4.6027650  24.2713930  19.9067380   4.1984650  23.5591180  19.4113280
   4.6890770  23.9267170  20.7955420   5.0709350  27.9581490  22.0706590
   4.7737640  27.3526960  21.3914370   6.0209170  27.9958800  21.9595950
   3.3156270  21.0457140  23.6866420   3.8670860  21.1552480  22.9119670
   3.8299780  21.4194740  24.4021650  13.1594960  31.5313360  25.7329690
  12.6825520  32.3385550  25.5402300  12.4756750  30.8791690  25.8855900
   4.1627780  27.6963180  28.7214390   3.2656310  27.9203150  28.9687790
   4.1880650  27.8198120  27.7725790  11.2033000  24.5456300  14.6355650
  11.6426280  23.7078730  14.4893470  11.9161420  25.1785700  14.7219790
   2.9899000  24.5676500  27.2971760   2.8506770  25.4399300  27.6659160
   2.1080360  24.2249310  27.1519700   9.3128380  29.4852370  18.6036890
   9.7524290  30.2276700  18.1892280   9.2515270  29.7278940  19.5275850
   4.7879350  30.5098200  29.5056910   4.7594780  30.9141150  28.6385340
   4.6244320  29.5808560  29.3428510  14.7850140  15.7999110  12.9496690
  14.4722800  15.8925940  13.8495760  15.5462610  16.3780140  12.8994120
  10.0044160  32.1866150  26.5315900  10.5188830  32.0974160  27.3338330
   9.1613240  32.5325850  26.8243810  11.9798560  32.4721490  15.9599900
  11.8199700  32.1824430  16.8581730  11.8145270  31.6961620  15.4245130
   4.4586940  32.2520020  17.7371520   4.2829420  31.3355560  17.5239320
   3.6042680  32.6107310  17.9769320  11.6824690  29.9809050  14.5197900
  10.9889850  29.9786340  13.8600180  12.4247550  29.5568370  14.0892070
  11.2474620  31.6071760  18.5946390  11.7031570  30.8261140  18.9085010
  11.5867140  32.3178580  19.1387570  15.9951430  20.5370610  28.9270830
  15.3795700  21.0450280  28.3986290  15.6747850  19.6368940  28.8696770
   3.7695940  16.5093980  20.7897700   3.3264090  17.2903520  20.4582220
   4.3280930  16.8323870  21.4968640   8.0565750  19.3762500  26.3933020
   7.5945120  19.5845520  27.2052960   7.6543860  18.5621850  26.0903690
  13.0570260  20.5971450  27.5229680  12.2063850  20.2977200  27.8438750
  12.8972050  20.8413460  26.6113500  10.1519970  22.0973200  29.6228470
  10.4773380  21.2636950  29.2830700  10.9400300  22.6201720  29.7706800
   6.8854760  16.1304680  15.6703530   6.2608940  16.1264550  16.3956840
   6.7984880  15.2635640  15.2739500   5.8071840  17.0541310  22.6487300
   6.1044170  17.9604140  22.5679320   6.3557400  16.5660090  22.0346870
   3.5610160  21.6327550  18.5178950   3.3351080  21.4164720  19.4225570
   2.7802690  22.0656010  18.1724920  10.7907920  21.6390920  17.1169600
  10.1916810  22.3626720  16.9333220  11.3387530  21.5767700  16.3346050
   6.0009370  22.5313130  29.1839220   5.9052970  21.5907860  29.0339620
   6.8441350  22.7528200  28.7887290   9.3972790  20.2754460  19.1472880
   9.7902360  20.5926660  18.3341570   9.7589640  19.3966340  19.2617400
   7.7064960  19.0261770  30.4069740   7.0163280  18.8333970  31.0415830
   8.4497260  19.3096410  30.9394040   9.9827930  22.8660210  23.2423660
   9.2509050  23.3747020  23.5913760   9.5852270  22.0490190  22.9412440
   6.4205320  19.5414410  21.6476150   6.4241380  19.1004360  20.7980690
   7.3156440  19.8631740  21.7547970   6.4825470  20.5426490  14.6382910
   6.6038290  20.5012970  15.5868730   6.0973980  21.4050640  14.4829640
  10.4453840  18.3193890  22.6546600  10.4626580  18.7702540  23.4988450
  10.1969420  17.4199530  22.8680040   5.4946970  22.8527630  14.0366210
   4.9263870  22.4045880  13.4102120   6.2035970  23.2120410  13.5031360
  13.8724590  15.7326070  28.4932980  14.1970360  15.0015730  29.0190960
  13.9081100  15.4139710  27.5913970   6.7213290  23.6016190  23.3941560
   7.0883420  23.1274760  24.1402900   6.5318350  24.4757760  23.7349900
   4.5112660  22.6424830  25.7125770   4.2069730  23.5216810  25.9376130
   5.4659120  22.7024620  25.7483210   3.0394450  26.8485820  16.3092620
   2.2656710  26.3083440  16.1491340   3.7689080  26.3292430  15.9710380
  13.7982430  25.8451180  22.1019010  14.5181550  26.3406470  21.7115120
  13.5964250  25.1669070  21.4572880   9.2592370  17.2389140  16.2448400
   8.4456980  16.7402310  16.1693710   9.0654320  18.0787390  15.8284750
   9.1801230  25.9160240  27.9888010   9.1138540  24.9955910  27.7345600
   8.5506370  26.0135680  28.7032650  11.9740760  21.6108790  14.5410560
  12.8620380  21.9226020  14.3661900  11.9445850  20.7381040  14.1491140
   3.0831850  26.5166200  19.9471430   3.6010520  25.7134460  19.8928320
   2.6315870  26.4545340  20.7888260   7.9701350  27.7832480  15.2198730
   8.3117050  28.5274710  14.7242050   7.1414060  28.0963600  15.5823560
   3.7689510  23.9411810  29.7436680   3.4689650  24.0868990  28.8464500
   4.5400750  23.3817100  29.6510070   9.1117960  28.7380810  27.7391810
   9.1262500  27.8061770  27.5210720   8.4043060  28.8240570  28.3781580
  14.2455030  22.9220630  14.0090420  14.1618750  23.3534850  13.1586860
  14.9649220  23.3818980  14.4417240  15.3229170  25.3788150  27.0860390
  14.5977360  25.9716930  26.8889780  15.8504630  25.3711690  26.2873760
  15.2742280  29.7762890  16.7372550  14.6318440  29.1218510  17.0116270
  14.8872940  30.1817980  15.9613220  10.8528760  27.1048320  20.5844240
  11.2052580  26.5076450  19.9245610   9.9691090  26.7792550  20.7552490
   6.9392040  27.8646010  17.9914650   7.6263170  28.4115220  18.3722240
   6.1524460  28.4086740  18.0264260   6.2419250  24.8692040  17.6040010
   6.6982030  25.6797290  17.8300200   5.8907460  24.5515180  18.4358500
   8.5451860  30.3798380  24.8332310   9.1894080  30.5857760  25.5105730
   8.9081300  29.6186780  24.3803160   9.8183940  28.3830730  23.5509760
  10.4606170  27.6823890  23.6641930  10.3433290  29.1629170  23.3706650
  13.6639660  28.6679350  13.2748900  13.4377240  27.9509790  13.8673540
  13.2735860  28.4191790  12.4370650  11.5921560  29.1825630  26.7545820
  11.9277800  29.7692320  27.4323740  10.6721900  29.0518340  26.9843610
  13.2455910  26.5851290  14.9363060  12.9577610  27.0463980  15.7240940
  14.0408080  26.1249060  15.2047280   7.4210140  29.2316960  29.9233880
   7.1007010  28.5126200  30.4679570   6.7468500  29.9072030  29.9969940
   5.4624310  30.0777410  14.8667030   5.4534410  30.8107100  14.2511540
   4.5422670  29.8308990  14.9593990  10.6363740  19.4643120  25.2870680
  11.0044560  18.6438330  25.6150250   9.7761940  19.5245010  25.7026330
  14.0025770  18.4200060  16.0958240  13.3738930  18.5245730  15.3816470
  13.5077690  18.6396840  16.8852120   8.4483910  30.1405650  13.5292220
   8.5495890  29.9369640  12.5994200   7.5485650  29.8863930  13.7340000
   5.9709800  20.6986010  17.5116120   5.2625950  21.1672350  17.9529730
   6.2554280  20.0408020  18.1461310   7.5965730  22.1182710  25.5108650
   8.0950980  22.5928530  26.1760500   7.7388680  21.1946230  25.7178680
  10.0025230  17.4236670  18.9511910   9.8793010  17.4422800  18.0021420
  10.9509790  17.4715610  19.0710310   7.0902020  32.6591970  18.2239890
   7.3443520  32.6213360  17.3019260   6.1414500  32.5325300  18.2168140
   4.1744820  19.0071090  14.8866830   5.0235350  19.4441240  14.8207020
   3.8076090  19.3191350  15.7138890  14.8032590  18.3350670  26.3537040
  14.3006190  19.0756070  26.6930850  15.6189250  18.7234670  26.0373830
  13.0954600  23.5783850  19.7998400  12.1544740  23.5934080  19.9746090
  13.4098670  22.7919810  20.2458700   3.0736240  25.2603450  13.3602360
   3.8399510  25.1484810  13.9227790   3.1510930  24.5641420  12.7079130
   1.7683000  22.6928520  14.0435250   1.8486590  21.7456030  14.1552650
   2.6602750  23.0235400  14.1495910  15.0980180  30.7492700  21.4752660
  15.2227600  31.5723870  21.9476470  15.9645740  30.5383430  21.1276810
   2.5697710  32.8423910  21.1469790   3.3060190  32.2939370  21.4178360
   2.9538630  33.7079920  21.0075780   5.6800020  32.0154220  12.9695360
   6.4728630  32.3043050  12.5177150   5.1604370  31.5846390  12.2907840
  10.4120620  28.1349850  30.2830780   9.8058780  28.1581450  29.5426530
  10.1074730  27.4032890  30.8198030  11.8420990  31.8630140  28.8940190
  12.7942740  31.7788160  28.8440430  11.6949210  32.5271850  29.5673980
  14.7330190  31.2424350  14.3932100  14.4471700  30.8289490  13.5786280
  14.5349740  32.1712060  14.2732620   6.1977420  27.2357630  12.8337710
   6.0928060  26.6209980  13.5599090   6.0301640  26.7123520  12.0500720
   6.3491740  25.9214430  28.8126940   5.5837410  26.4899430  28.7281610
   6.5307700  25.6290640  27.9195170   9.4380150  26.2977660  13.4379700
   8.8890250  26.7446960  14.0822440  10.0599410  25.7926910  13.9617370
   5.1055270  25.2568580  15.3345000   5.5271690  25.0908450  16.1776390
   5.2306110  24.4468810  14.8400140   3.2682690  21.2365130  28.1415980
   2.7379150  20.7456080  27.5139320   3.9370760  21.6649330  27.6073910
   7.6182910  24.2806190  12.5822100   8.1388570  23.5655210  12.2163250
   8.2651310  24.9192060  12.8822610  12.1660750  25.7034590  27.9057170
  12.5801770  25.8579670  28.7547590  11.2311750  25.8289810  28.0682950
  12.6382920  23.0430750  29.9096320  13.2203690  22.2883070  29.8216800
  12.8144690  23.5738190  29.1327800   3.7554990  18.2027500  28.2213270
   3.6611860  17.5848250  27.4964140   3.1752380  18.9293790  27.9943180
   6.5216430  16.7600740  25.2540660   6.0733730  16.7825000  24.4086210
   5.8881630  16.3619760  25.8510960   6.9275980  25.6555070  25.8753100
   7.3464090  26.4987800  25.7029340   6.0084610  25.7927110  25.6459880
   9.2639880  23.3871250  27.2590940   9.3836090  22.7912390  27.9985780
  10.1233880  23.4240940  26.8392240  11.6027780  23.9408440  25.8353450
  11.0763000  24.4651060  25.2318590  11.9459120  24.5735830  26.4663180
   4.0014170  21.3301810  12.2803160   3.8003230  20.4669170  12.6416500
   3.8306220  21.2435170  11.3424760   4.7783400  31.9608080  26.9910830
   4.2404490  32.6854140  26.6719530   5.0317360  31.4838420  26.2008170
   6.0308650  19.9292600  28.5166760   6.6208340  19.6208450  29.2044580
   5.2128890  19.4572350  28.6726660  10.8502080  19.5458410  28.7499780
  10.1617600  18.8839950  28.6849770  11.5708100  19.0996680  29.1948240
  11.4802480  16.1410040  14.8090040  11.7604770  15.2977940  15.1649460
  10.7068210  16.3733150  15.3228790   2.7996970  18.4302430  12.2681040
   3.1022870  18.4369860  11.3600190   3.5391560  18.0800290  12.7648700
   7.6345610  33.1959290  27.2497480   7.5604310  34.0994430  27.5569850
   6.7324450  32.8771190  27.2219550   6.0181900  17.3737050  13.2537240
   5.6703900  16.6961040  12.6739690   6.2194670  16.9126560  14.0680630
   8.1830940  32.3617800  14.8723840   9.0781730  32.7002770  14.8942600
   8.2148570  31.6397210  14.2448120   1.8227100  27.7344850  13.1010840
   2.2601970  28.2774520  13.7568420   2.3074830  26.9091800  13.1107180
   3.6334820  28.8542890  18.2133070   3.3330360  28.7307860  19.1136980
   3.5272310  27.9951480  17.8048800  16.4026740  28.6339290  12.9159750
  15.5719700  28.7015940  13.3866980  16.5798570  29.5243410  12.6126610
  15.8583200  25.3786770  15.4193950  16.6202110  25.9483420  15.5253640
  15.8737570  24.8113970  16.1902260  16.8643170  26.2336870  20.2635880
  17.2352000  25.4504190  19.8571850  17.5045100  26.9225970  20.0853180
  13.8476930  27.6173450  25.6766200  13.0336770  28.0470610  25.9391990
  14.2551130  28.2291860  25.0635250  15.9102370  25.6721140  12.5766470
  16.1851210  26.5800020  12.4485690  15.7213110  25.6083670  13.5128460
  12.3077980  18.6965990  13.8720100  12.7262860  18.5096970  13.0316760
  12.0014040  17.8445040  14.1823030  15.8067710  23.6090130  17.5695900
  15.4311310  22.8418060  17.1377190  15.0770830  23.9912830  18.0570830
  15.1967330  22.7561650  27.2035420  14.9653420  22.5274400  26.3033370
  15.4571880  23.6761200  27.1580310  13.6355400  17.9818080  29.9815120
  14.5125580  17.9901480  30.3649120  13.6476240  17.2448920  29.3707470
  15.0818670  21.8347620  20.8703140  15.6056150  21.3410270  20.2393310
  15.6678090  21.9697980  21.6150710  15.2608390  21.9187490  24.3922690
  14.3111100  21.8851030  24.5067680  15.4421400  22.8287600  24.1572460
  14.5718640  21.0920970  16.8095550  15.0677760  20.8591840  17.5944430
  14.3734710  20.2532810  16.3933190  16.0005800  19.7281920  19.3433230
  15.8905080  19.5737960  20.2815500  16.7613390  19.2002860  19.1008640
  14.3471520  15.6676050  25.8016230  14.9843740  16.2810190  26.1675420
  14.4946410  15.7036710  24.8565460  16.8896070  17.5589840  12.5839370
  17.8145380  17.4271020  12.3757660  16.8671860  17.6382660  13.5375820
  16.9634560  18.3300500  15.2096080  16.1686060  18.2645620  15.7388990
  17.1677840  19.2651140  15.1981430  13.9052980  32.3692050  19.2034470
  14.5012050  32.0476620  18.5268890  14.1631130  31.8963870  19.9947740
   1.8115550  28.8009960  29.3525100   1.7685180  28.4302870  30.2339560
   1.9426560  29.7387530  29.4926920   5.5121580  30.3569550  24.9534820
   5.2712940  30.6244110  24.0665340   6.4524220  30.5275280  25.0085680
   7.7176000  16.8202240  28.7091330   7.6564890  17.4124070  29.4586740
   8.6576380  16.7128200  28.5641590  10.3550560  16.4772300  28.3483620
  10.9690970  16.7951590  27.6864700  10.9000120  15.9920890  28.9679480
  11.0958600  15.0404440  24.6752910  10.2218440  15.3739550  24.4725840
  10.9869350  14.5677620  25.5004780  12.0030580  17.2475310  26.0594630
  11.6743940  16.4327070  25.6796360  12.9512880  17.2045120  25.9360320
  14.4565190  33.0187350  23.0332200  13.9968160  33.7703160  22.6590220
  13.8277650  32.2993820  22.9747000   4.8860910  31.3275590  22.2080330
   5.4025930  30.7162950  21.6828590   5.5358290  31.8304370  22.6991340
   7.6256410  32.2184080  23.0349310   7.9134220  31.9638380  22.1582320
   8.1379630  31.6661440  23.6254880   8.8433420  15.9574280  23.6145820
   8.0605210  16.4319780  23.8942580   8.5496350  15.0529110  23.5059000
  13.3954490  16.6597380  21.6594910  13.8362580  16.6042480  20.8116510
  13.1262080  17.5755390  21.7305090  15.2593060  16.2912620  19.6703730
  15.1981460  15.3473840  19.5234750  16.0385090  16.3992710  20.2157190
   6.7287640  18.3761030  19.1261850   5.9162150  18.0017920  18.7857730
   7.2329280  17.6206110  19.4283040  11.2312620  15.0403480  20.3644920
  11.8341990  15.6123690  20.8393440  10.4905610  15.6042920  20.1418820
  14.3747220  15.4425040  15.6385200  14.5697850  16.3408490  15.9052630
  13.5877090  15.2112120  16.1318150   2.5598980  16.7885810  14.6761510
   3.0891740  16.0015610  14.5469460   3.1927300  17.4677000  14.9097040
   4.7536820  16.5260950  17.7306900   4.1239560  15.8248260  17.8977030
   4.2141960  17.2865080  17.5140060   7.6928770  33.1400180  30.4017510
   8.6196080  32.9044450  30.4453470   7.6779200  33.9672180  29.9203540
  15.9273830  32.6825750  17.3991760  16.1026020  31.9963490  16.7552680
  15.2295400  33.2072800  17.0068430   4.8792380  15.8044930  30.1659390
   4.5976650  16.3078530  29.4020210   5.2612080  15.0066680  29.8001520
   3.7701480  33.0720590  14.9527070   4.5020300  32.7879870  14.4050960
   4.0295150  32.8333870  15.8426450   2.9316270  29.1885320  14.9573400
   2.3025150  29.6570420  15.5059230   3.0464100  28.3434540  15.3919590
  11.4807840  15.2198510  30.7439860  11.3673290  15.5393120  31.6391380
  12.2977580  15.6211020  30.4477140   8.5184030  25.0170000   2.9883870
   7.7426130  24.5370440   3.2782440   9.1696960  24.3375650   2.8140030
   2.5349860  25.3289810   3.8659630   1.7034740  25.0738520   4.2656140
   3.1430840  25.4000580   4.6017550  12.5391460  29.4230190   1.7683000
  12.0772990  28.6517430   2.0970170  13.3517010  29.4496260   2.2735450
   2.5151120  29.3629900   4.0617650   2.8179160  28.4727640   3.8827870
   3.2594710  29.9200120   3.8339900   7.9593020  27.6927190   2.9954030
   7.8901300  26.7517130   2.8343160   8.7212880  27.7828600   3.5676600
   8.9898190  20.4997570   3.2222960   9.3663010  19.6269450   3.1096630
   8.8917700  20.8356270   2.3313400   4.9610930  21.8409570   3.0165580
   5.4689150  22.3390540   3.6570600   5.4924170  21.0644770   2.8404940
  17.0621860  20.0114760   6.7194930  16.3574030  20.3996470   6.2010040
  17.3279780  20.7065050   7.3215860   3.2447030  16.4808130   7.2829000
   3.2465470  16.9980520   6.4774900   2.4151340  16.0038310   7.2598930
   4.4949880  26.1203310   5.4602500   4.1619260  26.7472230   6.1023570
   4.6716560  26.6465190   4.6804170  13.0083790  19.9348390   2.9278840
  12.3039360  20.2233280   3.5081950  13.3695950  20.7448500   2.5678400
   2.9262360  18.1918090   5.2899450   3.2679170  19.0360140   4.9953320
   1.9878170  18.3401830   5.4064790   3.7068980  28.0884110   7.2751680
   4.3242980  28.7635190   6.9936130   2.8462100  28.4972090   7.1839180
  14.6246570  29.5523520   5.1906320  13.9410090  30.2222630   5.1822990
  15.1640860  29.7504170   4.4251180  16.0770710  19.3803180   3.3188050
  15.1295620  19.4142160   3.4503480  16.4020700  20.1942130   3.7037410
  12.1605310  31.3967650   3.9051500  12.1732470  30.9929940   3.0373760
  11.6080530  32.1714940   3.8012930  11.5590750  26.2997490   5.2334110
  11.9759540  26.0857600   4.3987570  12.2830570  26.5570280   5.8042730
  15.5052850  24.6984710   5.3250350  14.6771480  24.7677800   4.8500480
  16.1003330  25.2839020   4.8566180  12.4694860  21.4854030   6.2705220
  12.0566040  22.3107740   6.5245210  11.7370810  20.8999070   6.0781580
   5.0709350  27.9581490   3.2963100   4.7737640  27.3526960   2.6170880
   6.0209170  27.9958800   3.1852460   3.3156270  21.0457140   4.9122930
   3.8670860  21.1552480   4.1376180   3.8299780  21.4194740   5.6278160
  13.1594960  31.5313360   6.9586200  12.6825520  32.3385550   6.7658810
  12.4756750  30.8791690   7.1112410   4.1627780  27.6963180   9.9470900
   3.2656310  27.9203150  10.1944300   4.1880650  27.8198120   8.9982300
   2.9899000  24.5676500   8.5228270   2.8506770  25.4399300   8.8915670
   2.1080360  24.2249310   8.3776210   4.7879350  30.5098200  10.7313420
   4.7594780  30.9141150   9.8641850   4.6244320  29.5808560  10.5685020
  16.7394170  31.2925300  12.0277590  17.2153890  31.7708190  12.7066670
  17.3601330  31.2242790  11.3023090  16.1427420  28.4838150   9.1877600
  16.2690480  28.2450030   8.2694780  16.1848800  27.6522690   9.6599680
  10.0044160  32.1866150   7.7572410  10.5188830  32.0974160   8.5594840
   9.1613240  32.5325850   8.0500320  15.9951430  20.5370610  10.1527340
  15.3795700  21.0450280   9.6242800  15.6747850  19.6368940  10.0953280
   3.7695940  16.5093980   2.0154210   3.3264090  17.2903520   1.6838730
   4.3280930  16.8323870   2.7225150   8.0565750  19.3762500   7.6189530
   7.5945120  19.5845520   8.4309470   7.6543860  18.5621850   7.3160200
  13.0570260  20.5971450   8.7486190  12.2063850  20.2977200   9.0695260
  12.8972050  20.8413460   7.8370010  10.1519970  22.0973200  10.8484980
  10.4773380  21.2636950  10.5087210  10.9400300  22.6201720  10.9963310
   5.8071840  17.0541310   3.8743810   6.1044170  17.9604140   3.7935830
   6.3557400  16.5660090   3.2603380   6.0009370  22.5313130  10.4095730
   5.9052970  21.5907860  10.2596130   6.8441350  22.7528200  10.0143800
   7.7064960  19.0261770  11.6326250   7.0163280  18.8333970  12.2672340
   8.4497260  19.3096410  12.1650550   9.9827930  22.8660210   4.4680170
   9.2509050  23.3747020   4.8170270   9.5852270  22.0490190   4.1668950
   6.4205320  19.5414410   2.8732660   6.4241380  19.1004360   2.0237200
   7.3156440  19.8631740   2.9804480  10.4453840  18.3193890   3.8803110
  10.4626580  18.7702540   4.7244960  10.1969420  17.4199530   4.0936550
  13.8724590  15.7326070   9.7189490  14.1970360  15.0015730  10.2447470
  13.9081100  15.4139710   8.8170480   6.7213290  23.6016190   4.6198070
   7.0883420  23.1274760   5.3659410   6.5318350  24.4757760   4.9606410
   4.5112660  22.6424830   6.9382280   4.2069730  23.5216810   7.1632640
   5.4659120  22.7024620   6.9739720  13.7982430  25.8451180   3.3275520
  14.5181550  26.3406470   2.9371630  13.5964250  25.1669070   2.6829390
   9.1801230  25.9160240   9.2144520   9.1138540  24.9955910   8.9602110
   8.5506370  26.0135680   9.9289160   3.7689510  23.9411810  10.9693190
   3.4689650  24.0868990  10.0721010   4.5400750  23.3817100  10.8766580
   9.1117960  28.7380810   8.9648320   9.1262500  27.8061770   8.7467230
   8.4043060  28.8240570   9.6038090  15.3229170  25.3788150   8.3116900
  14.5977360  25.9716930   8.1146290  15.8504630  25.3711690   7.5130270
   8.5451860  30.3798380   6.0588820   9.1894080  30.5857760   6.7362240
   8.9081300  29.6186780   5.6059670   9.8183940  28.3830730   4.7766270
  10.4606170  27.6823890   4.8898440  10.3433290  29.1629170   4.5963160
  11.5921560  29.1825630   7.9802330  11.9277800  29.7692320   8.6580250
  10.6721900  29.0518340   8.2100120   7.4210140  29.2316960  11.1490390
   7.1007010  28.5126200  11.6936080   6.7468500  29.9072030  11.2226450
  10.6363740  19.4643120   6.5127190  11.0044560  18.6438330   6.8406760
   9.7761940  19.5245010   6.9282840   7.5965730  22.1182710   6.7365160
   8.0950980  22.5928530   7.4017010   7.7388680  21.1946230   6.9435190
  14.8032590  18.3350670   7.5793550  14.3006190  19.0756070   7.9187360
  15.6189250  18.7234670   7.2630340  15.0980180  30.7492700   2.7009170
  15.2227600  31.5723870   3.1732980  15.9645740  30.5383430   2.3533320
   2.5697710  32.8423910   2.3726300   3.3060190  32.2939370   2.6434870
   2.9538630  33.7079920   2.2332290  10.4120620  28.1349850  11.5087290
   9.8058780  28.1581450  10.7683040  10.1074730  27.4032890  12.0454540
  11.8420990  31.8630140  10.1196700  12.7942740  31.7788160  10.0696940
  11.6949210  32.5271850  10.7930490   6.3491740  25.9214430  10.0383450
   5.5837410  26.4899430   9.9538120   6.5307700  25.6290640   9.1451680
  13.4915090  27.6519760  10.5958470  14.2324560  27.9895520  10.0925930
  12.7287770  27.8211820  10.0428240   3.2682690  21.2365130   9.3672490
   2.7379150  20.7456080   8.7395830   3.9370760  21.6649330   8.8330420
  12.1660750  25.7034590   9.1313680  12.5801770  25.8579670   9.9804100
  11.2311750  25.8289810   9.2939460  12.6382920  23.0430750  11.1352830
  13.2203690  22.2883070  11.0473310  12.8144690  23.5738190  10.3584310
   3.7554990  18.2027500   9.4469780   3.6611860  17.5848250   8.7220650
   3.1752380  18.9293790   9.2199690   6.5216430  16.7600740   6.4797170
   6.0733730  16.7825000   5.6342720   5.8881630  16.3619760   7.0767470
   6.9275980  25.6555070   7.1009610   7.3464090  26.4987800   6.9285850
   6.0084610  25.7927110   6.8716390   9.2639880  23.3871250   8.4847450
   9.3836090  22.7912390   9.2242290  10.1233880  23.4240940   8.0648750
  11.6027780  23.9408440   7.0609960  11.0763000  24.4651060   6.4575100
  11.9459120  24.5735830   7.6919690   4.7783400  31.9608080   8.2167340
   4.2404490  32.6854140   7.8976040   5.0317360  31.4838420   7.4264680
   6.0308650  19.9292600   9.7423270   6.6208340  19.6208450  10.4301090
   5.2128890  19.4572350   9.8983170  10.8502080  19.5458410   9.9756290
  10.1617600  18.8839950   9.9106280  11.5708100  19.0996680  10.4204750
   7.6345610  33.1959290   8.4753990   7.5604310  34.0994430   8.7826360
   6.7324450  32.8771190   8.4476060  15.1625290  30.8921470   8.8046550
  14.5627280  30.9514030   8.0610470  15.2919190  29.9526450   8.9343400
  13.8476930  27.6173450   6.9022710  13.0336770  28.0470610   7.1648500
  14.2551130  28.2291860   6.2891760  15.1967330  22.7561650   8.4291930
  14.9653420  22.5274400   7.5289880  15.4571880  23.6761200   8.3836820
  13.6355400  17.9818080  11.2071630  14.5125580  17.9901480  11.5905630
  13.6476240  17.2448920  10.5963980  15.0818670  21.8347620   2.0959650
  15.6056150  21.3410270   1.4649820  15.6678090  21.9697980   2.8407220
  15.2608390  21.9187490   5.6179200  14.3111100  21.8851030   5.7324190
  15.4421400  22.8287600   5.3828970  14.3471520  15.6676050   7.0272740
  14.9843740  16.2810190   7.3931930  14.4946410  15.7036710   6.0821970
   1.8115550  28.8009960  10.5781610   1.7685180  28.4302870  11.4596070
   1.9426560  29.7387530  10.7183430   5.5121580  30.3569550   6.1791330
   5.2712940  30.6244110   5.2921850   6.4524220  30.5275280   6.2342190
   7.7176000  16.8202240   9.9347840   7.6564890  17.4124070  10.6843250
   8.6576380  16.7128200   9.7898100  10.3550560  16.4772300   9.5740130
  10.9690970  16.7951590   8.9121210  10.9000120  15.9920890  10.1935990
  16.7725740  32.3763930   6.9801970  16.2784020  32.7732800   6.2629100
  16.1639030  31.7513140   7.3739250  11.0958600  15.0404440   5.9009420
  10.2218440  15.3739550   5.6982350  10.9869350  14.5677620   6.7261290
  12.0030580  17.2475310   7.2851140  11.6743940  16.4327070   6.9052870
  12.9512880  17.2045120   7.1616830  14.4565190  33.0187350   4.2588710
  13.9968160  33.7703160   3.8846730  13.8277650  32.2993820   4.2003510
   4.8860910  31.3275590   3.4336840   5.4025930  30.7162950   2.9085100
   5.5358290  31.8304370   3.9247850   7.6256410  32.2184080   4.2605820
   7.9134220  31.9638380   3.3838830   8.1379630  31.6661440   4.8511390
   8.8433420  15.9574280   4.8402330   8.0605210  16.4319780   5.1199090
   8.5496350  15.0529110   4.7315510  13.3954490  16.6597380   2.8851420
  13.8362580  16.6042480   2.0373020  13.1262080  17.5755390   2.9561600
   7.6928770  33.1400180  11.6274020   8.6196080  32.9044450  11.6709980
   7.6779200  33.9672180  11.1460050   4.8792380  15.8044930  11.3915900
   4.5976650  16.3078530  10.6276720   5.2612080  15.0066680  11.0258030
  11.4807840  15.2198510  11.9696370  11.3673290  15.5393120  12.8647890
  12.2977580  15.6211020  11.6733650  14.2606330  32.3670040  11.4515060
  15.0531650  31.8719270  11.2441020  14.5539480  33.0460180  12.0590670
  10.3865990   4.4647490  57.4305070  10.3060040   3.5502100  57.1596780
   9.9730410   4.9614560  56.7244780   8.5184030   6.2426510  59.3114340
   7.7426130   5.7626950  59.6012910   9.1696960   5.5632160  59.1370500
  12.5391460  10.6486700  58.0913470  12.0772990   9.8773940  58.4200640
  13.3517010  10.6752770  58.5965920   8.7654770  12.9344710  57.7117460
   8.1466210  13.3902210  57.1411900   9.6206550  13.0896170  57.3107160
   7.9593020   8.9183700  59.3184500   7.8901300   7.9773640  59.1573630
   8.7212880   9.0085110  59.8907070   4.9610930   3.0666080  59.3396050
   5.4689150   3.5647050  59.9801070   5.4924170   2.2901280  59.1635410
   9.6318120   7.8183950  55.1049370   9.0135390   8.2833400  54.5412090
  10.1441370   8.5111430  55.5218880  12.1605310  12.6224160  60.2281970
  12.1732470  12.2186450  59.3604230  11.6080530  13.3971450  60.1243400
  13.4550730   9.3440380  55.3172140  13.3447060   8.4014710  55.4421560
  13.4518980   9.7056020  56.2034900   8.9971010   4.9705700  54.6734630
   8.0700290   4.9043080  54.9023100   9.1495830   5.9085830  54.5589870
  13.0268300   6.5326000  55.1769880  12.4080720   6.1945550  54.5296180
  13.0092750   5.8885760  55.8849070   4.6027650   5.4970440  57.4554360
   4.1984650   4.7847690  56.9600260   4.6890770   5.1523680  58.3442400
   5.0709350   9.1838000  59.6193570   4.7737640   8.5783470  58.9401350
   6.0209170   9.2215310  59.5082930  11.2033000   5.7712810  52.1842630
  11.6426280   4.9335240  52.0380450  11.9161420   6.4042210  52.2706770
   9.3128380  10.7108880  56.1523870   9.7524290  11.4533210  55.7379260
   9.2515270  10.9535450  57.0762830  11.9798560  13.6978000  53.5086880
  11.8199700  13.4080940  54.4068710  11.8145270  12.9218130  52.9732110
   4.4586940  13.4776530  55.2858500   4.2829420  12.5612070  55.0726300
   3.6042680  13.8363820  55.5256300  11.6824690  11.2065560  52.0684880
  10.9889850  11.2042850  51.4087160  12.4247550  10.7824880  51.6379050
  11.2474620  12.8328270  56.1433370  11.7031570  12.0517650  56.4571990
  11.5867140  13.5435090  56.6874550   3.5610160   2.8584060  56.0665930
   3.3351080   2.6421230  56.9712550   2.7802690   3.2912520  55.7211900
  10.7907920   2.8647430  54.6656580  10.1916810   3.5883230  54.4820200
  11.3387530   2.8024210  53.8833030   6.4825470   1.7683000  52.1869890
   6.6038290   1.7269480  53.1355710   6.0973980   2.6307150  52.0316620
   5.4946970   4.0784140  51.5853190   4.9263870   3.6302390  50.9589100
   6.2035970   4.4376920  51.0518340   3.0394450   8.0742330  53.8579600
   2.2656710   7.5339950  53.6978320   3.7689080   7.5548940  53.5197360
  13.7982430   7.0707690  59.6505990  14.5181550   7.5662980  59.2602100
  13.5964250   6.3925580  59.0059860  11.9740760   2.8365300  52.0897540
  12.8620380   3.1482530  51.9148880  11.9445850   1.9637550  51.6978120
   3.0831850   7.7422710  57.4958410   3.6010520   6.9390970  57.4415300
   2.6315870   7.6801850  58.3375240   7.9701350   9.0088990  52.7685710
   8.3117050   9.7531220  52.2729030   7.1414060   9.3220110  53.1310540
  14.2455030   4.1477140  51.5577400  14.1618750   4.5791360  50.7073840
  14.9649220   4.6075490  51.9904220  15.2742280  11.0019400  54.2859530
  14.6318440  10.3475020  54.5603250  14.8872940  11.4074490  53.5100200
  10.8528760   8.3304830  58.1331220  11.2052580   7.7332960  57.4732590
   9.9691090   8.0049060  58.3039470   6.9392040   9.0902520  55.5401630
   7.6263170   9.6371730  55.9209220   6.1524460   9.6343250  55.5751240
   6.2419250   6.0948550  55.1526990   6.6982030   6.9053800  55.3787180
   5.8907460   5.7771690  55.9845480  13.6639660   9.8935860  50.8235880
  13.4377240   9.1766300  51.4160520  13.2735860   9.6448300  49.9857630
  13.2455910   7.8107800  52.4850040  12.9577610   8.2720490  53.2727920
  14.0408080   7.3505570  52.7534260   5.4624310  11.3033920  52.4154010
   5.4534410  12.0363610  51.7998520   4.5422670  11.0565500  52.5080970
   8.4483910  11.3662160  51.0779200   8.5495890  11.1626150  50.1481180
   7.5485650  11.1120440  51.2826980   7.0902020  13.8848480  55.7726870
   7.3443520  13.8469870  54.8506240   6.1414500  13.7581810  55.7655120
  13.0954600   4.8040360  57.3485380  12.1544740   4.8190590  57.5233070
  13.4098670   4.0176320  57.7945680   3.0736240   6.4859960  50.9089340
   3.8399510   6.3741320  51.4714770   3.1510930   5.7897930  50.2566110
   1.7683000   3.9185030  51.5922230   1.8486590   2.9712540  51.7039630
   2.6602750   4.2491910  51.6982890  15.0980180  11.9749210  59.0239640
  15.2227600  12.7980380  59.4963450  15.9645740  11.7639940  58.6763790
   2.5697710  14.0680420  58.6956770   3.3060190  13.5195880  58.9665340
   2.9538630  14.9336430  58.5562760   5.6800020  13.2410730  50.5182340
   6.4728630  13.5299560  50.0664130   5.1604370  12.8102900  49.8394820
  14.7330190  12.4680860  51.9419080  14.4471700  12.0546000  51.1273260
  14.5349740  13.3968570  51.8219600   6.1977420   8.4614140  50.3824690
   6.0928060   7.8466490  51.1086070   6.0301640   7.9380030  49.5987700
   9.4380150   7.5234170  50.9866680   8.8890250   7.9703470  51.6309420
  10.0599410   7.0183420  51.5104350   5.1055270   6.4825090  52.8831980
   5.5271690   6.3164960  53.7263370   5.2306110   5.6725320  52.3887120
   7.6182910   5.5062700  50.1309080   8.1388570   4.7911720  49.7650230
   8.2651310   6.1448570  50.4309590   4.0014170   2.5558320  49.8290140
   3.8003230   1.6925680  50.1903480   3.8306220   2.4691680  48.8911740
   8.1830940  13.5874310  52.4210820   9.0781730  13.9259280  52.4429580
   8.2148570  12.8653720  51.7935100   1.8227100   8.9601360  50.6497820
   2.2601970   9.5031030  51.3055400   2.3074830   8.1348310  50.6594160
   3.6334820  10.0799400  55.7620050   3.3330360   9.9564370  56.6623960
   3.5272310   9.2207990  55.3535780  16.4026740   9.8595800  50.4646730
  15.5719700   9.9272450  50.9353960  16.5798570  10.7499920  50.1613590
  15.8583200   6.6043280  52.9680930  16.6202110   7.1739930  53.0740620
  15.8737570   6.0370480  53.7389240  16.8643170   7.4593380  57.8122860
  17.2352000   6.6760700  57.4058830  17.5045100   8.1482480  57.6340160
  15.9102370   6.8977650  50.1253450  16.1851210   7.8056530  49.9972670
  15.7213110   6.8340180  51.0615440  15.8067710   4.8346640  55.1182880
  15.4311310   4.0674570  54.6864170  15.0770830   5.2169340  55.6057810
  15.0818670   3.0604130  58.4190120  15.6056150   2.5666780  57.7880290
  15.6678090   3.1954490  59.1637690  13.9052980  13.5948560  56.7521450
  14.5012050  13.2733130  56.0755870  14.1631130  13.1220380  57.5434720
   4.8860910  12.5532100  59.7567310   5.4025930  11.9419460  59.2315570
   5.5358290  13.0560880  60.2478320  15.9273830  13.9082260  54.9478740
  16.1026020  13.2220000  54.3039660  15.2295400  14.4329310  54.5555410
   3.7701480  14.2977100  52.5014050   4.5020300  14.0136380  51.9537940
   4.0295150  14.0590380  53.3913430   2.9316270  10.4141830  52.5060380
   2.3025150  10.8826930  53.0546210   3.0464100   9.5691050  52.9406570
  10.3865990   4.4647490  38.6561580  10.3060040   3.5502100  38.3853290
   9.9730410   4.9614560  37.9501290   8.5184030   6.2426510  40.5370850
   7.7426130   5.7626950  40.8269420   9.1696960   5.5632160  40.3627010
   2.5349860   6.5546320  41.4146610   1.7034740   6.2995030  41.8143120
   3.1430840   6.6257090  42.1504530  12.5391460  10.6486700  39.3169980
  12.0772990   9.8773940  39.6457150  13.3517010  10.6752770  39.8222430
   2.5151120  10.5886410  41.6104630   2.8179160   9.6984150  41.4314850
   3.2594710  11.1456630  41.3826880   8.7654770  12.9344710  38.9373970
   8.1466210  13.3902210  38.3668410   9.6206550  13.0896170  38.5363670
   7.9593020   8.9183700  40.5441010   7.8901300   7.9773640  40.3830140
   8.7212880   9.0085110  41.1163580   4.9610930   3.0666080  40.5652560
   5.4689150   3.5647050  41.2057580   5.4924170   2.2901280  40.3891920
   9.6318120   7.8183950  36.3305880   9.0135390   8.2833400  35.7668600
  10.1441370   8.5111430  36.7475390   4.4949880   7.3459820  43.0089480
   4.1619260   7.9728740  43.6510550   4.6716560   7.8721700  42.2291150
   3.7068980   9.3140620  44.8238660   4.3242980   9.9891700  44.5423110
   2.8462100   9.7228600  44.7326160  14.6246570  10.7780030  42.7393300
  13.9410090  11.4479140  42.7309970  15.1640860  10.9760680  41.9738160
  12.1605310  12.6224160  41.4538480  12.1732470  12.2186450  40.5860740
  11.6080530  13.3971450  41.3499910  13.4550730   9.3440380  36.5428650
  13.3447060   8.4014710  36.6678070  13.4518980   9.7056020  37.4291410
  11.5590750   7.5254000  42.7821090  11.9759540   7.3114110  41.9474550
  12.2830570   7.7826790  43.3529710   8.9971010   4.9705700  35.8991140
   8.0700290   4.9043080  36.1279610   9.1495830   5.9085830  35.7846380
  15.5052850   5.9241220  42.8737330  14.6771480   5.9934310  42.3987460
  16.1003330   6.5095530  42.4053160  13.0268300   6.5326000  36.4026390
  12.4080720   6.1945550  35.7552690  13.0092750   5.8885760  37.1105580
  12.4694860   2.7110540  43.8192200  12.0566040   3.5364250  44.0732190
  11.7370810   2.1255580  43.6268560   4.6027650   5.4970440  38.6810870
   4.1984650   4.7847690  38.1856770   4.6890770   5.1523680  39.5698910
   5.0709350   9.1838000  40.8450080   4.7737640   8.5783470  40.1657860
   6.0209170   9.2215310  40.7339440   3.3156270   2.2713650  42.4609910
   3.8670860   2.3808990  41.6863160   3.8299780   2.6451250  43.1765140
  13.1594960  12.7569870  44.5073180  12.6825520  13.5642060  44.3145790
  12.4756750  12.1048200  44.6599390   4.1627780   8.9219690  47.4957880
   3.2656310   9.1459660  47.7431280   4.1880650   9.0454630  46.5469280
  11.2033000   5.7712810  33.4099140  11.6426280   4.9335240  33.2636960
  11.9161420   6.4042210  33.4963280   2.9899000   5.7933010  46.0715250
   2.8506770   6.6655810  46.4402650   2.1080360   5.4505820  45.9263190
   9.3128380  10.7108880  37.3780380   9.7524290  11.4533210  36.9635770
   9.2515270  10.9535450  38.3019340   4.7879350  11.7354710  48.2800400
   4.7594780  12.1397660  47.4128830   4.6244320  10.8065070  48.1172000
  16.7394170  12.5181810  49.5764570  17.2153890  12.9964700  50.2553650
  17.3601330  12.4499300  48.8510070  16.1427420   9.7094660  46.7364580
  16.2690480   9.4706540  45.8181760  16.1848800   8.8779200  47.2086660
  10.0044160  13.4122660  45.3059390  10.5188830  13.3230670  46.1081820
   9.1613240  13.7582360  45.5987300  11.9798560  13.6978000  34.7343390
  11.8199700  13.4080940  35.6325220  11.8145270  12.9218130  34.1988620
   4.4586940  13.4776530  36.5115010   4.2829420  12.5612070  36.2982810
   3.6042680  13.8363820  36.7512810  11.6824690  11.2065560  33.2941390
  10.9889850  11.2042850  32.6343670  12.4247550  10.7824880  32.8635560
  11.2474620  12.8328270  37.3689880  11.7031570  12.0517650  37.6828500
  11.5867140  13.5435090  37.9131060  10.1519970   3.3229710  48.3971960
  10.4773380   2.4893460  48.0574190  10.9400300   3.8458230  48.5450290
   3.5610160   2.8584060  37.2922440   3.3351080   2.6421230  38.1969060
   2.7802690   3.2912520  36.9468410  10.7907920   2.8647430  35.8913090
  10.1916810   3.5883230  35.7076710  11.3387530   2.8024210  35.1089540
   6.0009370   3.7569640  47.9582710   5.9052970   2.8164370  47.8083110
   6.8441350   3.9784710  47.5630780   9.9827930   4.0916720  42.0167150
   9.2509050   4.6003530  42.3657250   9.5852270   3.2746700  41.7155930
   6.4825470   1.7683000  33.4126400   6.6038290   1.7269480  34.3612220
   6.0973980   2.6307150  33.2573130   5.4946970   4.0784140  32.8109700
   4.9263870   3.6302390  32.1845610   6.2035970   4.4376920  32.2774850
   6.7213290   4.8272700  42.1685050   7.0883420   4.3531270  42.9146390
   6.5318350   5.7014270  42.5093390   4.5112660   3.8681340  44.4869260
   4.2069730   4.7473320  44.7119620   5.4659120   3.9281130  44.5226700
   3.0394450   8.0742330  35.0836110   2.2656710   7.5339950  34.9234830
   3.7689080   7.5548940  34.7453870  13.7982430   7.0707690  40.8762500
  14.5181550   7.5662980  40.4858610  13.5964250   6.3925580  40.2316370
   9.1801230   7.1416750  46.7631500   9.1138540   6.2212420  46.5089090
   8.5506370   7.2392190  47.4776140  11.9740760   2.8365300  33.3154050
  12.8620380   3.1482530  33.1405390  11.9445850   1.9637550  32.9234630
   3.0831850   7.7422710  38.7214920   3.6010520   6.9390970  38.6671810
   2.6315870   7.6801850  39.5631750   7.9701350   9.0088990  33.9942220
   8.3117050   9.7531220  33.4985540   7.1414060   9.3220110  34.3567050
   3.7689510   5.1668320  48.5180170   3.4689650   5.3125500  47.6207990
   4.5400750   4.6073610  48.4253560   9.1117960   9.9637320  46.5135300
   9.1262500   9.0318280  46.2954210   8.4043060  10.0497080  47.1525070
  14.2455030   4.1477140  32.7833910  14.1618750   4.5791360  31.9330350
  14.9649220   4.6075490  33.2160730  15.3229170   6.6044660  45.8603880
  14.5977360   7.1973440  45.6633270  15.8504630   6.5968200  45.0617250
  15.2742280  11.0019400  35.5116040  14.6318440  10.3475020  35.7859760
  14.8872940  11.4074490  34.7356710  10.8528760   8.3304830  39.3587730
  11.2052580   7.7332960  38.6989100   9.9691090   8.0049060  39.5295980
   6.9392040   9.0902520  36.7658140   7.6263170   9.6371730  37.1465730
   6.1524460   9.6343250  36.8007750   6.2419250   6.0948550  36.3783500
   6.6982030   6.9053800  36.6043690   5.8907460   5.7771690  37.2101990
   8.5451860  11.6054890  43.6075800   9.1894080  11.8114270  44.2849220
   8.9081300  10.8443290  43.1546650   9.8183940   9.6087240  42.3253250
  10.4606170   8.9080400  42.4385420  10.3433290  10.3885680  42.1450140
  13.6639660   9.8935860  32.0492390  13.4377240   9.1766300  32.6417030
  13.2735860   9.6448300  31.2114140  11.5921560  10.4082140  45.5289310
  11.9277800  10.9948830  46.2067230  10.6721900  10.2774850  45.7587100
  13.2455910   7.8107800  33.7106550  12.9577610   8.2720490  34.4984430
  14.0408080   7.3505570  33.9790770   7.4210140  10.4573470  48.6977370
   7.1007010   9.7382710  49.2423060   6.7468500  11.1328540  48.7713430
   5.4624310  11.3033920  33.6410520   5.4534410  12.0363610  33.0255030
   4.5422670  11.0565500  33.7337480   8.4483910  11.3662160  32.3035710
   8.5495890  11.1626150  31.3737690   7.5485650  11.1120440  32.5083490
   7.5965730   3.3439220  44.2852140   8.0950980   3.8185040  44.9503990
   7.7388680   2.4202740  44.4922170   7.0902020  13.8848480  36.9983380
   7.3443520  13.8469870  36.0762750   6.1414500  13.7581810  36.9911630
  13.0954600   4.8040360  38.5741890  12.1544740   4.8190590  38.7489580
  13.4098670   4.0176320  39.0202190   3.0736240   6.4859960  32.1345850
   3.8399510   6.3741320  32.6971280   3.1510930   5.7897930  31.4822620
   1.7683000   3.9185030  32.8178740   1.8486590   2.9712540  32.9296140
   2.6602750   4.2491910  32.9239400  15.0980180  11.9749210  40.2496150
  15.2227600  12.7980380  40.7219960  15.9645740  11.7639940  39.9020300
   2.5697710  14.0680420  39.9213280   3.3060190  13.5195880  40.1921850
   2.9538630  14.9336430  39.7819270   5.6800020  13.2410730  31.7438850
   6.4728630  13.5299560  31.2920640   5.1604370  12.8102900  31.0651330
  10.4120620   9.3606360  49.0574270   9.8058780   9.3837960  48.3170020
  10.1074730   8.6289400  49.5941520  11.8420990  13.0886650  47.6683680
  12.7942740  13.0044670  47.6183920  11.6949210  13.7528360  48.3417470
  14.7330190  12.4680860  33.1675590  14.4471700  12.0546000  32.3529770
  14.5349740  13.3968570  33.0476110   6.1977420   8.4614140  31.6081200
   6.0928060   7.8466490  32.3342580   6.0301640   7.9380030  30.8244210
   6.3491740   7.1470940  47.5870430   5.5837410   7.7155940  47.5025100
   6.5307700   6.8547150  46.6938660   9.4380150   7.5234170  32.2123190
   8.8890250   7.9703470  32.8565930  10.0599410   7.0183420  32.7360860
  13.4915090   8.8776270  48.1445450  14.2324560   9.2152030  47.6412910
  12.7287770   9.0468330  47.5915220   5.1055270   6.4825090  34.1088490
   5.5271690   6.3164960  34.9519880   5.2306110   5.6725320  33.6143630
   3.2682690   2.4621640  46.9159470   2.7379150   1.9712590  46.2882810
   3.9370760   2.8905840  46.3817400   7.6182910   5.5062700  31.3565590
   8.1388570   4.7911720  30.9906740   8.2651310   6.1448570  31.6566100
  12.1660750   6.9291100  46.6800660  12.5801770   7.0836180  47.5291080
  11.2311750   7.0546320  46.8426440  12.6382920   4.2687260  48.6839810
  13.2203690   3.5139580  48.5960290  12.8144690   4.7994700  47.9071290
   6.9275980   6.8811580  44.6496590   7.3464090   7.7244310  44.4772830
   6.0084610   7.0183620  44.4203370   9.2639880   4.6127760  46.0334430
   9.3836090   4.0168900  46.7729270  10.1233880   4.6497450  45.6135730
  11.6027780   5.1664950  44.6096940  11.0763000   5.6907570  44.0062080
  11.9459120   5.7992340  45.2406670   4.0014170   2.5558320  31.0546650
   3.8003230   1.6925680  31.4159990   3.8306220   2.4691680  30.1168250
   4.7783400  13.1864590  45.7654320   4.2404490  13.9110650  45.4463020
   5.0317360  12.7094930  44.9751660   7.6345610  14.4215800  46.0240970
   7.5604310  15.3250940  46.3313340   6.7324450  14.1027700  45.9963040
   8.1830940  13.5874310  33.6467330   9.0781730  13.9259280  33.6686090
   8.2148570  12.8653720  33.0191610   1.8227100   8.9601360  31.8754330
   2.2601970   9.5031030  32.5311910   2.3074830   8.1348310  31.8850670
   3.6334820  10.0799400  36.9876560   3.3330360   9.9564370  37.8880470
   3.5272310   9.2207990  36.5792290  15.1625290  12.1177980  46.3533530
  14.5627280  12.1770540  45.6097450  15.2919190  11.1782960  46.4830380
  16.4026740   9.8595800  31.6903240  15.5719700   9.9272450  32.1610470
  16.5798570  10.7499920  31.3870100  15.8583200   6.6043280  34.1937440
  16.6202110   7.1739930  34.2997130  15.8737570   6.0370480  34.9645750
  16.8643170   7.4593380  39.0379370  17.2352000   6.6760700  38.6315340
  17.5045100   8.1482480  38.8596670  13.8476930   8.8429960  44.4509690
  13.0336770   9.2727120  44.7135480  14.2551130   9.4548370  43.8378740
  15.9102370   6.8977650  31.3509960  16.1851210   7.8056530  31.2229180
  15.7213110   6.8340180  32.2871950  15.8067710   4.8346640  36.3439390
  15.4311310   4.0674570  35.9120680  15.0770830   5.2169340  36.8314320
  15.1967330   3.9818160  45.9778910  14.9653420   3.7530910  45.0776860
  15.4571880   4.9017710  45.9323800  15.0818670   3.0604130  39.6446630
  15.6056150   2.5666780  39.0136800  15.6678090   3.1954490  40.3894200
  15.2608390   3.1444000  43.1666180  14.3111100   3.1107540  43.2811170
  15.4421400   4.0544110  42.9315950  13.9052980  13.5948560  37.9777960
  14.5012050  13.2733130  37.3012380  14.1631130  13.1220380  38.7691230
   1.8115550  10.0266470  48.1268590   1.7685180   9.6559380  49.0083050
   1.9426560  10.9644040  48.2670410   5.5121580  11.5826060  43.7278310
   5.2712940  11.8500620  42.8408830   6.4524220  11.7531790  43.7829170
  16.7725740  13.6020440  44.5288950  16.2784020  13.9989310  43.8116080
  16.1639030  12.9769650  44.9226230  14.4565190  14.2443860  41.8075690
  13.9968160  14.9959670  41.4333710  13.8277650  13.5250330  41.7490490
   4.8860910  12.5532100  40.9823820   5.4025930  11.9419460  40.4572080
   5.5358290  13.0560880  41.4734830   7.6256410  13.4440590  41.8092800
   7.9134220  13.1894890  40.9325810   8.1379630  12.8917950  42.3998370
   7.6928770  14.3656690  49.1761000   8.6196080  14.1300960  49.2196960
   7.6779200  15.1928690  48.6947030  15.9273830  13.9082260  36.1735250
  16.1026020  13.2220000  35.5296170  15.2295400  14.4329310  35.7811920
   3.7701480  14.2977100  33.7270560   4.5020300  14.0136380  33.1794450
   4.0295150  14.0590380  34.6169940   2.9316270  10.4141830  33.7316890
   2.3025150  10.8826930  34.2802720   3.0464100   9.5691050  34.1663080
  14.2606330  13.5926550  49.0002040  15.0531650  13.0975780  48.7928000
  14.5539480  14.2716690  49.6077650  10.3865990   4.4647490  19.8818090
  10.3060040   3.5502100  19.6109800   9.9730410   4.9614560  19.1757800
   8.5184030   6.2426510  21.7627360   7.7426130   5.7626950  22.0525930
   9.1696960   5.5632160  21.5883520   2.5349860   6.5546320  22.6403120
   1.7034740   6.2995030  23.0399630   3.1430840   6.6257090  23.3761040
  12.5391460  10.6486700  20.5426490  12.0772990   9.8773940  20.8713660
  13.3517010  10.6752770  21.0478940   2.5151120  10.5886410  22.8361140
   2.8179160   9.6984150  22.6571360   3.2594710  11.1456630  22.6083390
   8.7654770  12.9344710  20.1630480   8.1466210  13.3902210  19.5924920
   9.6206550  13.0896170  19.7620180   7.9593020   8.9183700  21.7697520
   7.8901300   7.9773640  21.6086650   8.7212880   9.0085110  22.3420090
   4.9610930   3.0666080  21.7909070   5.4689150   3.5647050  22.4314090
   5.4924170   2.2901280  21.6148430   9.6318120   7.8183950  17.5562390
   9.0135390   8.2833400  16.9925110  10.1441370   8.5111430  17.9731900
   4.4949880   7.3459820  24.2345990   4.1619260   7.9728740  24.8767060
   4.6716560   7.8721700  23.4547660   3.7068980   9.3140620  26.0495170
   4.3242980   9.9891700  25.7679620   2.8462100   9.7228600  25.9582670
  14.6246570  10.7780030  23.9649810  13.9410090  11.4479140  23.9566480
  15.1640860  10.9760680  23.1994670  12.1605310  12.6224160  22.6794990
  12.1732470  12.2186450  21.8117250  11.6080530  13.3971450  22.5756420
  13.4550730   9.3440380  17.7685160  13.3447060   8.4014710  17.8934580
  13.4518980   9.7056020  18.6547920  11.5590750   7.5254000  24.0077600
  11.9759540   7.3114110  23.1731060  12.2830570   7.7826790  24.5786220
   8.9971010   4.9705700  17.1247650   8.0700290   4.9043080  17.3536120
   9.1495830   5.9085830  17.0102890  15.5052850   5.9241220  24.0993840
  14.6771480   5.9934310  23.6243970  16.1003330   6.5095530  23.6309670
  13.0268300   6.5326000  17.6282900  12.4080720   6.1945550  16.9809200
  13.0092750   5.8885760  18.3362090  12.4694860   2.7110540  25.0448710
  12.0566040   3.5364250  25.2988700  11.7370810   2.1255580  24.8525070
   4.6027650   5.4970440  19.9067380   4.1984650   4.7847690  19.4113280
   4.6890770   5.1523680  20.7955420   5.0709350   9.1838000  22.0706590
   4.7737640   8.5783470  21.3914370   6.0209170   9.2215310  21.9595950
   3.3156270   2.2713650  23.6866420   3.8670860   2.3808990  22.9119670
   3.8299780   2.6451250  24.4021650  13.1594960  12.7569870  25.7329690
  12.6825520  13.5642060  25.5402300  12.4756750  12.1048200  25.8855900
   4.1627780   8.9219690  28.7214390   3.2656310   9.1459660  28.9687790
   4.1880650   9.0454630  27.7725790  11.2033000   5.7712810  14.6355650
  11.6426280   4.9335240  14.4893470  11.9161420   6.4042210  14.7219790
   2.9899000   5.7933010  27.2971760   2.8506770   6.6655810  27.6659160
   2.1080360   5.4505820  27.1519700   9.3128380  10.7108880  18.6036890
   9.7524290  11.4533210  18.1892280   9.2515270  10.9535450  19.5275850
   4.7879350  11.7354710  29.5056910   4.7594780  12.1397660  28.6385340
   4.6244320  10.8065070  29.3428510  16.7394170  12.5181810  30.8021080
  17.2153890  12.9964700  31.4810160  17.3601330  12.4499300  30.0766580
  16.1427420   9.7094660  27.9621090  16.2690480   9.4706540  27.0438270
  16.1848800   8.8779200  28.4343170  10.0044160  13.4122660  26.5315900
  10.5188830  13.3230670  27.3338330   9.1613240  13.7582360  26.8243810
  11.9798560  13.6978000  15.9599900  11.8199700  13.4080940  16.8581730
  11.8145270  12.9218130  15.4245130   4.4586940  13.4776530  17.7371520
   4.2829420  12.5612070  17.5239320   3.6042680  13.8363820  17.9769320
  11.6824690  11.2065560  14.5197900  10.9889850  11.2042850  13.8600180
  12.4247550  10.7824880  14.0892070  11.2474620  12.8328270  18.5946390
  11.7031570  12.0517650  18.9085010  11.5867140  13.5435090  19.1387570
  10.1519970   3.3229710  29.6228470  10.4773380   2.4893460  29.2830700
  10.9400300   3.8458230  29.7706800   3.5610160   2.8584060  18.5178950
   3.3351080   2.6421230  19.4225570   2.7802690   3.2912520  18.1724920
  10.7907920   2.8647430  17.1169600  10.1916810   3.5883230  16.9333220
  11.3387530   2.8024210  16.3346050   6.0009370   3.7569640  29.1839220
   5.9052970   2.8164370  29.0339620   6.8441350   3.9784710  28.7887290
   9.9827930   4.0916720  23.2423660   9.2509050   4.6003530  23.5913760
   9.5852270   3.2746700  22.9412440   6.4825470   1.7683000  14.6382910
   6.6038290   1.7269480  15.5868730   6.0973980   2.6307150  14.4829640
   5.4946970   4.0784140  14.0366210   4.9263870   3.6302390  13.4102120
   6.2035970   4.4376920  13.5031360   6.7213290   4.8272700  23.3941560
   7.0883420   4.3531270  24.1402900   6.5318350   5.7014270  23.7349900
   4.5112660   3.8681340  25.7125770   4.2069730   4.7473320  25.9376130
   5.4659120   3.9281130  25.7483210   3.0394450   8.0742330  16.3092620
   2.2656710   7.5339950  16.1491340   3.7689080   7.5548940  15.9710380
  13.7982430   7.0707690  22.1019010  14.5181550   7.5662980  21.7115120
  13.5964250   6.3925580  21.4572880   9.1801230   7.1416750  27.9888010
   9.1138540   6.2212420  27.7345600   8.5506370   7.2392190  28.7032650
  11.9740760   2.8365300  14.5410560  12.8620380   3.1482530  14.3661900
  11.9445850   1.9637550  14.1491140   3.0831850   7.7422710  19.9471430
   3.6010520   6.9390970  19.8928320   2.6315870   7.6801850  20.7888260
   7.9701350   9.0088990  15.2198730   8.3117050   9.7531220  14.7242050
   7.1414060   9.3220110  15.5823560   3.7689510   5.1668320  29.7436680
   3.4689650   5.3125500  28.8464500   4.5400750   4.6073610  29.6510070
   9.1117960   9.9637320  27.7391810   9.1262500   9.0318280  27.5210720
   8.4043060  10.0497080  28.3781580  14.2455030   4.1477140  14.0090420
  14.1618750   4.5791360  13.1586860  14.9649220   4.6075490  14.4417240
  15.3229170   6.6044660  27.0860390  14.5977360   7.1973440  26.8889780
  15.8504630   6.5968200  26.2873760  15.2742280  11.0019400  16.7372550
  14.6318440  10.3475020  17.0116270  14.8872940  11.4074490  15.9613220
  10.8528760   8.3304830  20.5844240  11.2052580   7.7332960  19.9245610
   9.9691090   8.0049060  20.7552490   6.9392040   9.0902520  17.9914650
   7.6263170   9.6371730  18.3722240   6.1524460   9.6343250  18.0264260
   6.2419250   6.0948550  17.6040010   6.6982030   6.9053800  17.8300200
   5.8907460   5.7771690  18.4358500   8.5451860  11.6054890  24.8332310
   9.1894080  11.8114270  25.5105730   8.9081300  10.8443290  24.3803160
   9.8183940   9.6087240  23.5509760  10.4606170   8.9080400  23.6641930
  10.3433290  10.3885680  23.3706650  13.6639660   9.8935860  13.2748900
  13.4377240   9.1766300  13.8673540  13.2735860   9.6448300  12.4370650
  11.5921560  10.4082140  26.7545820  11.9277800  10.9948830  27.4323740
  10.6721900  10.2774850  26.9843610  13.2455910   7.8107800  14.9363060
  12.9577610   8.2720490  15.7240940  14.0408080   7.3505570  15.2047280
   7.4210140  10.4573470  29.9233880   7.1007010   9.7382710  30.4679570
   6.7468500  11.1328540  29.9969940   5.4624310  11.3033920  14.8667030
   5.4534410  12.0363610  14.2511540   4.5422670  11.0565500  14.9593990
   8.4483910  11.3662160  13.5292220   8.5495890  11.1626150  12.5994200
   7.5485650  11.1120440  13.7340000   7.5965730   3.3439220  25.5108650
   8.0950980   3.8185040  26.1760500   7.7388680   2.4202740  25.7178680
   7.0902020  13.8848480  18.2239890   7.3443520  13.8469870  17.3019260
   6.1414500  13.7581810  18.2168140  13.0954600   4.8040360  19.7998400
  12.1544740   4.8190590  19.9746090  13.4098670   4.0176320  20.2458700
   3.0736240   6.4859960  13.3602360   3.8399510   6.3741320  13.9227790
   3.1510930   5.7897930  12.7079130   1.7683000   3.9185030  14.0435250
   1.8486590   2.9712540  14.1552650   2.6602750   4.2491910  14.1495910
  15.0980180  11.9749210  21.4752660  15.2227600  12.7980380  21.9476470
  15.9645740  11.7639940  21.1276810   2.5697710  14.0680420  21.1469790
   3.3060190  13.5195880  21.4178360   2.9538630  14.9336430  21.0075780
   5.6800020  13.2410730  12.9695360   6.4728630  13.5299560  12.5177150
   5.1604370  12.8102900  12.2907840  10.4120620   9.3606360  30.2830780
   9.8058780   9.3837960  29.5426530  10.1074730   8.6289400  30.8198030
  11.8420990  13.0886650  28.8940190  12.7942740  13.0044670  28.8440430
  11.6949210  13.7528360  29.5673980  14.7330190  12.4680860  14.3932100
  14.4471700  12.0546000  13.5786280  14.5349740  13.3968570  14.2732620
   6.1977420   8.4614140  12.8337710   6.0928060   7.8466490  13.5599090
   6.0301640   7.9380030  12.0500720   6.3491740   7.1470940  28.8126940
   5.5837410   7.7155940  28.7281610   6.5307700   6.8547150  27.9195170
   9.4380150   7.5234170  13.4379700   8.8890250   7.9703470  14.0822440
  10.0599410   7.0183420  13.9617370  13.4915090   8.8776270  29.3701960
  14.2324560   9.2152030  28.8669420  12.7287770   9.0468330  28.8171730
   5.1055270   6.4825090  15.3345000   5.5271690   6.3164960  16.1776390
   5.2306110   5.6725320  14.8400140   3.2682690   2.4621640  28.1415980
   2.7379150   1.9712590  27.5139320   3.9370760   2.8905840  27.6073910
   7.6182910   5.5062700  12.5822100   8.1388570   4.7911720  12.2163250
   8.2651310   6.1448570  12.8822610  12.1660750   6.9291100  27.9057170
  12.5801770   7.0836180  28.7547590  11.2311750   7.0546320  28.0682950
  12.6382920   4.2687260  29.9096320  13.2203690   3.5139580  29.8216800
  12.8144690   4.7994700  29.1327800   6.9275980   6.8811580  25.8753100
   7.3464090   7.7244310  25.7029340   6.0084610   7.0183620  25.6459880
   9.2639880   4.6127760  27.2590940   9.3836090   4.0168900  27.9985780
  10.1233880   4.6497450  26.8392240  11.6027780   5.1664950  25.8353450
  11.0763000   5.6907570  25.2318590  11.9459120   5.7992340  26.4663180
   4.0014170   2.5558320  12.2803160   3.8003230   1.6925680  12.6416500
   3.8306220   2.4691680  11.3424760   4.7783400  13.1864590  26.9910830
   4.2404490  13.9110650  26.6719530   5.0317360  12.7094930  26.2008170
   7.6345610  14.4215800  27.2497480   7.5604310  15.3250940  27.5569850
   6.7324450  14.1027700  27.2219550   8.1830940  13.5874310  14.8723840
   9.0781730  13.9259280  14.8942600   8.2148570  12.8653720  14.2448120
   1.8227100   8.9601360  13.1010840   2.2601970   9.5031030  13.7568420
   2.3074830   8.1348310  13.1107180   3.6334820  10.0799400  18.2133070
   3.3330360   9.9564370  19.1136980   3.5272310   9.2207990  17.8048800
  15.1625290  12.1177980  27.5790040  14.5627280  12.1770540  26.8353960
  15.2919190  11.1782960  27.7086890  16.4026740   9.8595800  12.9159750
  15.5719700   9.9272450  13.3866980  16.5798570  10.7499920  12.6126610
  15.8583200   6.6043280  15.4193950  16.6202110   7.1739930  15.5253640
  15.8737570   6.0370480  16.1902260  16.8643170   7.4593380  20.2635880
  17.2352000   6.6760700  19.8571850  17.5045100   8.1482480  20.0853180
  13.8476930   8.8429960  25.6766200  13.0336770   9.2727120  25.9391990
  14.2551130   9.4548370  25.0635250  15.9102370   6.8977650  12.5766470
  16.1851210   7.8056530  12.4485690  15.7213110   6.8340180  13.5128460
  15.8067710   4.8346640  17.5695900  15.4311310   4.0674570  17.1377190
  15.0770830   5.2169340  18.0570830  15.1967330   3.9818160  27.2035420
  14.9653420   3.7530910  26.3033370  15.4571880   4.9017710  27.1580310
  15.0818670   3.0604130  20.8703140  15.6056150   2.5666780  20.2393310
  15.6678090   3.1954490  21.6150710  15.2608390   3.1444000  24.3922690
  14.3111100   3.1107540  24.5067680  15.4421400   4.0544110  24.1572460
  13.9052980  13.5948560  19.2034470  14.5012050  13.2733130  18.5268890
  14.1631130  13.1220380  19.9947740   1.8115550  10.0266470  29.3525100
   1.7685180   9.6559380  30.2339560   1.9426560  10.9644040  29.4926920
   5.5121580  11.5826060  24.9534820   5.2712940  11.8500620  24.0665340
   6.4524220  11.7531790  25.0085680  16.7725740  13.6020440  25.7545460
  16.2784020  13.9989310  25.0372590  16.1639030  12.9769650  26.1482740
  14.4565190  14.2443860  23.0332200  13.9968160  14.9959670  22.6590220
  13.8277650  13.5250330  22.9747000   4.8860910  12.5532100  22.2080330
   5.4025930  11.9419460  21.6828590   5.5358290  13.0560880  22.6991340
   7.6256410  13.4440590  23.0349310   7.9134220  13.1894890  22.1582320
   8.1379630  12.8917950  23.6254880   7.6928770  14.3656690  30.4017510
   8.6196080  14.1300960  30.4453470   7.6779200  15.1928690  29.9203540
  15.9273830  13.9082260  17.3991760  16.1026020  13.2220000  16.7552680
  15.2295400  14.4329310  17.0068430   3.7701480  14.2977100  14.9527070
   4.5020300  14.0136380  14.4050960   4.0295150  14.0590380  15.8426450
   2.9316270  10.4141830  14.9573400   2.3025150  10.8826930  15.5059230
   3.0464100   9.5691050  15.3919590  14.2606330  13.5926550  30.2258550
  15.0531650  13.0975780  30.0184510  14.5539480  14.2716690  30.8334160
   8.5184030   6.2426510   2.9883870   7.7426130   5.7626950   3.2782440
   9.1696960   5.5632160   2.8140030   2.5349860   6.5546320   3.8659630
   1.7034740   6.2995030   4.2656140   3.1430840   6.6257090   4.6017550
  12.5391460  10.6486700   1.7683000  12.0772990   9.8773940   2.0970170
  13.3517010  10.6752770   2.2735450   2.5151120  10.5886410   4.0617650
   2.8179160   9.6984150   3.8827870   3.2594710  11.1456630   3.8339900
   7.9593020   8.9183700   2.9954030   7.8901300   7.9773640   2.8343160
   8.7212880   9.0085110   3.5676600   4.9610930   3.0666080   3.0165580
   5.4689150   3.5647050   3.6570600   5.4924170   2.2901280   2.8404940
   4.4949880   7.3459820   5.4602500   4.1619260   7.9728740   6.1023570
   4.6716560   7.8721700   4.6804170   3.7068980   9.3140620   7.2751680
   4.3242980   9.9891700   6.9936130   2.8462100   9.7228600   7.1839180
  14.6246570  10.7780030   5.1906320  13.9410090  11.4479140   5.1822990
  15.1640860  10.9760680   4.4251180  12.1605310  12.6224160   3.9051500
  12.1732470  12.2186450   3.0373760  11.6080530  13.3971450   3.8012930
  11.5590750   7.5254000   5.2334110  11.9759540   7.3114110   4.3987570
  12.2830570   7.7826790   5.8042730  15.5052850   5.9241220   5.3250350
  14.6771480   5.9934310   4.8500480  16.1003330   6.5095530   4.8566180
  12.4694860   2.7110540   6.2705220  12.0566040   3.5364250   6.5245210
  11.7370810   2.1255580   6.0781580   5.0709350   9.1838000   3.2963100
   4.7737640   8.5783470   2.6170880   6.0209170   9.2215310   3.1852460
   3.3156270   2.2713650   4.9122930   3.8670860   2.3808990   4.1376180
   3.8299780   2.6451250   5.6278160  13.1594960  12.7569870   6.9586200
  12.6825520  13.5642060   6.7658810  12.4756750  12.1048200   7.1112410
   4.1627780   8.9219690   9.9470900   3.2656310   9.1459660  10.1944300
   4.1880650   9.0454630   8.9982300   2.9899000   5.7933010   8.5228270
   2.8506770   6.6655810   8.8915670   2.1080360   5.4505820   8.3776210
   4.7879350  11.7354710  10.7313420   4.7594780  12.1397660   9.8641850
   4.6244320  10.8065070  10.5685020  16.7394170  12.5181810  12.0277590
  17.2153890  12.9964700  12.7066670  17.3601330  12.4499300  11.3023090
  16.1427420   9.7094660   9.1877600  16.2690480   9.4706540   8.2694780
  16.1848800   8.8779200   9.6599680  10.0044160  13.4122660   7.7572410
  10.5188830  13.3230670   8.5594840   9.1613240  13.7582360   8.0500320
  10.1519970   3.3229710  10.8484980  10.4773380   2.4893460  10.5087210
  10.9400300   3.8458230  10.9963310   6.0009370   3.7569640  10.4095730
   5.9052970   2.8164370  10.2596130   6.8441350   3.9784710  10.0143800
   9.9827930   4.0916720   4.4680170   9.2509050   4.6003530   4.8170270
   9.5852270   3.2746700   4.1668950   6.7213290   4.8272700   4.6198070
   7.0883420   4.3531270   5.3659410   6.5318350   5.7014270   4.9606410
   4.5112660   3.8681340   6.9382280   4.2069730   4.7473320   7.1632640
   5.4659120   3.9281130   6.9739720  13.7982430   7.0707690   3.3275520
  14.5181550   7.5662980   2.9371630  13.5964250   6.3925580   2.6829390
   9.1801230   7.1416750   9.2144520   9.1138540   6.2212420   8.9602110
   8.5506370   7.2392190   9.9289160   3.7689510   5.1668320  10.9693190
   3.4689650   5.3125500  10.0721010   4.5400750   4.6073610  10.8766580
   9.1117960   9.9637320   8.9648320   9.1262500   9.0318280   8.7467230
   8.4043060  10.0497080   9.6038090  15.3229170   6.6044660   8.3116900
  14.5977360   7.1973440   8.1146290  15.8504630   6.5968200   7.5130270
   8.5451860  11.6054890   6.0588820   9.1894080  11.8114270   6.7362240
   8.9081300  10.8443290   5.6059670   9.8183940   9.6087240   4.7766270
  10.4606170   8.9080400   4.8898440  10.3433290  10.3885680   4.5963160
  11.5921560  10.4082140   7.9802330  11.9277800  10.9948830   8.6580250
  10.6721900  10.2774850   8.2100120   7.4210140  10.4573470  11.1490390
   7.1007010   9.7382710  11.6936080   6.7468500  11.1328540  11.2226450
   7.5965730   3.3439220   6.7365160   8.0950980   3.8185040   7.4017010
   7.7388680   2.4202740   6.9435190  15.0980180  11.9749210   2.7009170
  15.2227600  12.7980380   3.1732980  15.9645740  11.7639940   2.3533320
   2.5697710  14.0680420   2.3726300   3.3060190  13.5195880   2.6434870
   2.9538630  14.9336430   2.2332290  10.4120620   9.3606360  11.5087290
   9.8058780   9.3837960  10.7683040  10.1074730   8.6289400  12.0454540
  11.8420990  13.0886650  10.1196700  12.7942740  13.0044670  10.0696940
  11.6949210  13.7528360  10.7930490   6.3491740   7.1470940  10.0383450
   5.5837410   7.7155940   9.9538120   6.5307700   6.8547150   9.1451680
  13.4915090   8.8776270  10.5958470  14.2324560   9.2152030  10.0925930
  12.7287770   9.0468330  10.0428240   3.2682690   2.4621640   9.3672490
   2.7379150   1.9712590   8.7395830   3.9370760   2.8905840   8.8330420
  12.1660750   6.9291100   9.1313680  12.5801770   7.0836180   9.9804100
  11.2311750   7.0546320   9.2939460  12.6382920   4.2687260  11.1352830
  13.2203690   3.5139580  11.0473310  12.8144690   4.7994700  10.3584310
   6.9275980   6.8811580   7.1009610   7.3464090   7.7244310   6.9285850
   6.0084610   7.0183620   6.8716390   9.2639880   4.6127760   8.4847450
   9.3836090   4.0168900   9.2242290  10.1233880   4.6497450   8.0648750
  11.6027780   5.1664950   7.0609960  11.0763000   5.6907570   6.4575100
  11.9459120   5.7992340   7.6919690   4.7783400  13.1864590   8.2167340
   4.2404490  13.9110650   7.8976040   5.0317360  12.7094930   7.4264680
   7.6345610  14.4215800   8.4753990   7.5604310  15.3250940   8.7826360
   6.7324450  14.1027700   8.4476060  15.1625290  12.1177980   8.8046550
  14.5627280  12.1770540   8.0610470  15.2919190  11.1782960   8.9343400
  13.8476930   8.8429960   6.9022710  13.0336770   9.2727120   7.1648500
  14.2551130   9.4548370   6.2891760  15.1967330   3.9818160   8.4291930
  14.9653420   3.7530910   7.5289880  15.4571880   4.9017710   8.3836820
  15.0818670   3.0604130   2.0959650  15.6056150   2.5666780   1.4649820
  15.6678090   3.1954490   2.8407220  15.2608390   3.1444000   5.6179200
  14.3111100   3.1107540   5.7324190  15.4421400   4.0544110   5.3828970
   1.8115550  10.0266470  10.5781610   1.7685180   9.6559380  11.4596070
   1.9426560  10.9644040  10.7183430   5.5121580  11.5826060   6.1791330
   5.2712940  11.8500620   5.2921850   6.4524220  11.7531790   6.2342190
  16.7725740  13.6020440   6.9801970  16.2784020  13.9989310   6.2629100
  16.1639030  12.9769650   7.3739250  14.4565190  14.2443860   4.2588710
  13.9968160  14.9959670   3.8846730  13.8277650  13.5250330   4.2003510
   4.8860910  12.5532100   3.4336840   5.4025930  11.9419460   2.9085100
   5.5358290  13.0560880   3.9247850   7.6256410  13.4440590   4.2605820
   7.9134220  13.1894890   3.3838830   8.1379630  12.8917950   4.8511390
   7.6928770  14.3656690  11.6274020   8.6196080  14.1300960  11.6709980
   7.6779200  15.1928690  11.1460050  14.2606330  13.5926550  11.4515060
  15.0531650  13.0975780  11.2441020  14.5539480  14.2716690  12.0590670
  71.7553130  66.6958200  61.9964970  90.0000000  90.0000000  90.0000000
