default_name
  2748
  12.7370000 -27.6120000  14.8320000  13.5920000 -27.1670000  15.0980000
  12.9100000 -28.1920000  14.0360000  12.3080000 -27.9980000  15.6490000
  11.8150000 -26.5790000  14.3640000  11.0440000 -26.3830000  15.1240000
  12.5940000 -25.2730000  14.1030000  13.1500000 -25.0370000  15.0220000
  13.3040000 -25.4750000  13.2880000  11.7030000 -24.0800000  13.7220000
  11.4440000 -24.1940000  12.6590000  10.7890000 -24.1490000  14.3310000
  12.4690000 -22.4550000  13.9780000  13.7490000 -22.4740000  12.6970000
  13.2790000 -22.5870000  11.7090000  14.3130000 -21.5300000  12.7270000
  14.4340000 -23.3160000  12.8750000  11.0420000 -27.0890000  13.1390000
  11.6650000 -27.5800000  12.1970000   9.7040000 -26.9780000  13.1950000
   9.3230000 -26.4430000  13.9490000   8.7780000 -27.5600000  12.2190000
   9.2890000 -27.7780000  11.2700000   8.1750000 -28.8840000  12.7740000
   7.7470000 -28.6350000  13.7560000   7.0990000 -29.5600000  11.9010000
   7.5270000 -29.8100000  10.9190000   6.7510000 -30.4800000  12.3930000
   6.2510000 -28.8730000  11.7670000   9.2060000 -29.8320000  12.9650000
   8.8160000 -30.6810000  13.3210000   7.6170000 -26.5850000  11.9550000
   7.0340000 -26.0690000  12.9100000   7.2780000 -26.3900000  10.6690000
   7.9110000 -26.7200000   9.9680000   6.0860000 -25.6540000  10.2390000
   5.8720000 -24.8440000  10.9510000   6.3050000 -25.0370000   8.8430000
   6.7880000 -25.7960000   8.2100000   5.3190000 -24.7860000   8.4260000
   7.1820000 -23.7700000   8.8850000   6.6640000 -23.0570000   9.5430000
   8.1460000 -24.0510000   9.3350000   7.4260000 -23.1200000   7.5200000
   8.2290000 -22.1620000   7.5010000   6.8100000 -23.5670000   6.5260000
   4.8350000 -26.5470000  10.2560000   4.9110000 -27.7190000   9.8860000
   3.7090000 -25.9470000  10.6700000   3.7950000 -24.9930000  10.9580000
   2.3960000 -26.5800000  10.7570000   2.4030000 -27.5480000  10.2350000
   2.0390000 -26.8210000  12.2410000   2.2420000 -25.8830000  12.7780000
   0.9610000 -27.0380000  12.2760000   2.8040000 -27.9540000  12.8980000
   2.3730000 -29.2820000  12.7080000   1.4860000 -29.4800000  12.0880000
   3.0680000 -30.3500000  13.3030000   2.7230000 -31.3840000  13.1570000
   4.2050000 -30.0930000  14.0900000   4.8790000 -31.1350000  14.6550000
   4.4750000 -32.0240000  14.4400000   4.6410000 -28.7660000  14.2860000
   5.5290000 -28.5670000  14.9040000   3.9410000 -27.6960000  13.6920000
   4.2820000 -26.6620000  13.8480000   1.3710000 -25.6630000  10.0840000
   1.0190000 -24.6350000  10.6640000   0.9050000 -26.0500000   8.8850000
   1.3830000 -26.7920000   8.4160000  -0.1710000 -25.3600000   8.1740000
  -0.0940000 -24.2780000   8.3560000  -0.0890000 -25.6120000   6.6560000
   0.2730000 -26.6390000   6.5000000  -1.1020000 -25.5130000   6.2380000
   0.8530000 -24.6240000   5.9530000   0.5860000 -23.6090000   6.2810000
   1.8810000 -24.8520000   6.2700000   0.7590000 -24.7090000   4.4240000
   1.2310000 -25.6550000   4.1190000  -0.3090000 -24.7320000   4.1620000
   1.4390000 -23.5380000   3.6960000   1.3940000 -23.7360000   2.6150000
   0.8750000 -22.6220000   3.9240000   2.8430000 -23.3650000   4.1050000
   2.9030000 -22.6440000   4.7950000   3.1870000 -24.2220000   4.4880000
   3.3930000 -23.1110000   3.3090000  -1.5440000 -25.7160000   8.7530000
  -2.1160000 -26.7490000   8.4060000  -2.0370000 -24.8260000   9.6240000
  -1.4320000 -24.0780000   9.8970000  -3.3630000 -24.8980000  10.2250000
  -3.7160000 -25.9390000  10.2480000  -3.2980000 -24.3640000  11.6790000
  -3.1070000 -23.2930000  11.5190000  -4.2640000 -24.4910000  12.1900000
  -2.1680000 -24.9640000  12.5550000  -1.2010000 -24.6620000  12.1260000
  -2.2560000 -24.4800000  14.0100000  -3.2230000 -24.7820000  14.4400000
  -1.4390000 -24.9270000  14.5960000  -2.1690000 -23.3840000  14.0380000
  -2.0970000 -26.4970000  12.5010000  -1.9160000 -26.8200000  11.4650000
  -1.2760000 -26.8490000  13.1430000  -3.0480000 -26.9210000  12.8560000
  -4.3450000 -24.0820000   9.3690000  -3.9360000 -23.1430000   8.6840000
  -5.6270000 -24.4590000   9.4250000  -5.8520000 -25.2450000  10.0010000
  -6.7160000 -23.7680000   8.7400000  -6.3960000 -22.7700000   8.4070000
  -7.2400000 -24.5600000   7.5050000  -7.6760000 -25.5020000   7.8680000
  -8.2990000 -23.7790000   6.7060000  -7.8630000 -22.8370000   6.3430000
  -8.6320000 -24.3830000   5.8490000  -9.1590000 -23.5580000   7.3550000
  -6.1200000 -24.9610000   6.5360000  -5.3930000 -25.5990000   7.0600000
  -6.5490000 -25.5150000   5.6880000  -5.6150000 -24.0570000   6.1650000
  -7.8750000 -23.6570000   9.7380000  -8.1810000 -24.6420000  10.4040000
  -8.5100000 -22.4810000   9.8090000  -8.1450000 -21.7160000   9.2790000
  -9.6900000 -22.2500000  10.6340000  -9.8910000 -23.1210000  11.2750000
  -9.5430000 -20.9930000  11.5360000  -9.5210000 -20.1040000  10.8880000
 -10.7040000 -20.8670000  12.5390000 -10.7270000 -21.7550000  13.1880000
 -10.5610000 -19.9670000  13.1550000 -11.6550000 -20.7880000  11.9920000
  -8.2160000 -21.0060000  12.3140000  -7.3750000 -21.0240000  11.6050000
  -8.1480000 -20.1040000  12.9400000  -8.1750000 -21.8990000  12.9550000
 -10.8900000 -22.0790000   9.6870000 -10.9240000 -21.1270000   8.9050000
 -11.8220000 -23.0430000   9.7590000 -11.6700000 -23.7490000  10.4510000
 -13.0160000 -23.1430000   8.9170000 -13.1900000 -22.2800000   8.2570000
 -12.9950000 -24.4380000   8.0490000 -13.9010000 -24.4480000   7.4250000
 -11.7550000 -24.5100000   7.1490000 -10.8480000 -24.5010000   7.7720000
 -11.7840000 -25.4370000   6.5580000 -11.7430000 -23.6440000   6.4710000
 -13.1590000 -25.7650000   8.8180000 -14.1240000 -25.7660000   9.3470000
 -13.1290000 -26.6060000   8.1090000 -12.3420000 -25.8710000   9.5470000
 -14.2820000 -23.1660000   9.7940000 -14.1880000 -23.3690000  11.0040000
 -15.4440000 -22.9480000   9.1600000 -15.4320000 -22.8420000   8.1660000
 -16.7270000 -22.8580000   9.8500000 -17.2320000 -23.8350000   9.8240000
 -16.5660000 -22.5570000  10.8960000 -17.6170000 -21.8190000   9.1640000
 -17.1750000 -21.0760000   8.2850000 -18.8910000 -21.7790000   9.5900000
 -19.1420000 -22.4480000  10.2900000 -19.9370000 -20.8900000   9.0720000
 -20.0050000 -21.0310000   7.9830000 -21.2770000 -21.2960000   9.7040000
 -21.2280000 -21.1520000  10.7930000 -22.0830000 -20.6740000   9.2880000
 -21.4810000 -22.3540000   9.4840000 -19.6540000 -19.3990000   9.3260000
 -18.7810000 -19.0580000  10.1240000 -20.4080000 -18.5330000   8.6330000
 -21.0310000 -18.9140000   7.9500000 -20.2940000 -17.0790000   8.7330000
 -19.2390000 -16.7800000   8.6430000 -21.1010000 -16.3940000   7.6010000
 -20.8940000 -16.9230000   6.6590000 -22.1540000 -16.5440000   7.8800000
 -20.8300000 -14.8970000   7.4170000 -19.8540000 -14.3920000   8.0120000
 -21.5900000 -14.2870000   6.6350000 -20.7090000 -16.5860000  10.1370000
 -21.8680000 -16.7460000  10.5220000 -19.7440000 -15.9910000  10.8560000
 -18.8160000 -16.0080000  10.4840000 -19.9640000 -15.3270000  12.1370000
 -19.2820000 -14.4660000  12.1940000 -21.0050000 -14.9720000  12.1590000
 -19.7210000 -16.2360000  13.3470000 -20.1090000 -15.8490000  14.4490000
 -19.0930000 -17.4160000  13.1800000 -18.8940000 -17.7180000  12.2480000
 -18.7560000 -18.3170000  14.2910000 -19.5040000 -18.3620000  15.0960000
 -18.4460000 -19.7610000  13.8210000 -18.1520000 -20.3570000  14.6980000
 -19.6600000 -20.4060000  13.1490000 -19.9540000 -19.8110000  12.2720000
 -19.4040000 -21.4270000  12.8290000 -20.4970000 -20.4440000  13.8620000
 -17.1800000 -19.9010000  12.9600000 -16.3060000 -19.5600000  13.5340000
 -17.0440000 -20.9550000  12.6760000 -17.2840000 -19.2880000  12.0520000
 -17.5730000 -17.8340000  15.1580000 -17.4610000 -18.2870000  16.2980000
 -16.7490000 -16.9130000  14.6290000 -16.8920000 -16.6460000  13.6760000
 -15.6600000 -16.2830000  15.3690000 -15.6830000 -15.2010000  15.1700000
 -15.8190000 -16.4620000  16.4430000 -14.2870000 -16.8330000  14.9710000
 -13.4110000 -16.8990000  15.8310000 -14.0900000 -17.2240000  13.6970000
 -14.8870000 -17.2020000  13.0930000 -12.8150000 -17.7180000  13.1520000
 -12.4800000 -18.5940000  13.7260000 -12.9800000 -18.1310000  11.6740000
 -13.2170000 -17.2190000  11.1070000 -12.0110000 -18.5290000  11.3390000
 -14.0740000 -19.1800000  11.4340000 -13.8350000 -20.0530000  12.0590000
 -15.0270000 -18.7420000  11.7660000 -14.1950000 -19.6180000   9.9690000
 -13.1960000 -19.9580000   9.6600000 -14.8920000 -20.4690000   9.9530000
 -14.6880000 -18.5350000   9.0000000 -14.0380000 -17.6540000   9.1040000
 -14.6130000 -18.9260000   7.9740000 -16.0790000 -18.1530000   9.2780000
 -16.6660000 -18.9600000   9.2160000 -16.1410000 -17.7660000  10.1980000
 -16.3780000 -17.4720000   8.6100000 -11.6730000 -16.6900000  13.2520000
 -10.5710000 -17.0570000  13.6590000 -11.9740000 -15.4280000  12.8900000
 -12.8920000 -15.2680000  12.5280000 -11.0360000 -14.3060000  12.9240000
 -10.0850000 -14.6080000  12.4600000 -11.5930000 -13.0960000  12.1590000
 -12.6030000 -12.8680000  12.5290000 -10.9370000 -12.2290000  12.3270000
 -11.6510000 -13.3760000  10.8020000 -12.0150000 -12.5830000  10.3130000
 -10.6840000 -13.9060000  14.3600000  -9.5080000 -13.7180000  14.6550000
 -11.7040000 -13.8210000  15.2330000 -12.6260000 -13.9120000  14.8570000
 -11.5640000 -13.5070000  16.6530000 -11.0270000 -12.5490000  16.7230000
 -12.9570000 -13.3360000  17.2780000 -13.5030000 -14.2900000  17.2250000
 -12.8530000 -13.0330000  18.3300000 -13.5140000 -12.5630000  16.7280000
 -10.7240000 -14.5450000  17.4170000  -9.9080000 -14.1360000  18.2370000
 -10.9000000 -15.8470000  17.1120000 -11.6530000 -16.0680000  16.4920000
 -10.0990000 -16.9520000  17.6570000 -10.1260000 -16.9260000  18.7560000
 -10.6610000 -18.3140000  17.1800000 -11.0390000 -18.0990000  16.1700000
  -9.8480000 -19.0520000  17.1160000 -11.8010000 -18.8810000  18.0450000
 -12.5610000 -18.1000000  18.1940000 -12.4420000 -20.0950000  17.3540000
 -11.6820000 -20.8760000  17.2050000 -13.2540000 -20.4890000  17.9820000
 -12.8500000 -19.7900000  16.3790000 -11.3140000 -19.2440000  19.4620000
 -10.9200000 -18.3440000  19.9560000 -12.1550000 -19.6450000  20.0470000
 -10.5210000 -20.0030000  19.3940000  -8.6180000 -16.8600000  17.2670000
  -7.7580000 -17.0460000  18.1300000  -8.3580000 -16.5750000  15.9800000
  -9.1320000 -16.4890000  15.3530000  -7.0090000 -16.4520000  15.4360000
  -6.4030000 -17.3000000  15.7870000  -6.9940000 -16.4400000  13.8860000
  -7.5590000 -15.5530000  13.5640000  -5.5850000 -16.4010000  13.2710000
  -5.0190000 -17.2880000  13.5930000  -5.6640000 -16.3950000  12.1740000
  -5.0630000 -15.4930000  13.6060000  -7.6320000 -17.6040000  13.4010000
  -7.6230000 -17.5970000  12.4010000  -6.2960000 -15.1920000  15.9580000
  -5.1940000 -15.3090000  16.4790000  -6.9530000 -14.0240000  15.8770000
  -7.8210000 -14.0250000  15.3800000  -6.4260000 -12.7410000  16.3530000
  -5.3830000 -12.5820000  16.0410000  -7.3040000 -11.5510000  15.8590000
  -8.3470000 -11.8100000  16.0920000  -6.9610000 -10.1820000  16.4880000
  -5.9180000  -9.9220000  16.2550000  -7.6310000  -9.4120000  16.0780000
  -7.0900000 -10.2370000  17.5790000  -7.2430000 -11.4360000  14.3140000
  -6.2890000 -10.9490000  14.0640000  -7.2470000 -12.4600000  13.9130000
  -8.4020000 -10.6400000  13.6960000  -8.3980000  -9.6150000  14.0960000
  -8.2830000 -10.6070000  12.6030000  -9.3560000 -11.1270000  13.9450000
  -6.2310000 -12.6930000  17.8870000  -5.2950000 -12.0350000  18.3380000
  -7.0380000 -13.4500000  18.6550000  -7.8860000 -13.7830000  18.2430000
  -6.8260000 -13.6740000  20.0880000  -6.6190000 -12.7150000  20.5860000
  -8.0820000 -14.3070000  20.7340000  -8.8900000 -13.5730000  20.5950000
  -8.2990000 -15.2070000  20.1400000  -7.9840000 -14.6870000  22.2290000
  -8.9580000 -15.1000000  22.5300000  -7.2080000 -15.4580000  22.3450000
  -7.6460000 -13.5090000  23.1500000  -6.5110000 -13.3690000  23.5990000
  -8.6310000 -12.6640000  23.4490000  -8.4510000 -11.8830000  24.0470000
  -9.5460000 -12.8150000  23.0750000  -5.5320000 -14.4600000  20.3650000
  -4.7170000 -13.9790000  21.1480000  -5.3340000 -15.6100000  19.6950000
  -6.0880000 -15.9470000  19.1320000  -4.1250000 -16.4390000  19.8090000
  -3.9910000 -16.7760000  20.8470000  -4.2610000 -17.6860000  18.8970000
  -5.1740000 -18.1450000  19.3040000  -4.4300000 -17.4020000  17.8480000
  -3.0920000 -18.7030000  18.9770000  -2.1460000 -18.1420000  19.0070000
  -3.1970000 -19.5960000  20.2240000  -4.1420000 -20.1580000  20.1950000
  -2.3520000 -20.3000000  20.2430000  -3.1720000 -18.9690000  21.1280000
  -2.9450000 -19.5300000  17.6890000  -2.7510000 -18.8570000  16.8410000
  -2.1050000 -20.2320000  17.7980000  -3.8720000 -20.0930000  17.5060000
  -2.8250000 -15.6670000  19.4930000  -1.8610000 -15.7600000  20.2550000
  -2.8390000 -14.9480000  18.3600000  -3.7190000 -14.8840000  17.8890000
  -1.6790000 -14.3010000  17.7530000  -0.7050000 -14.7890000  17.9010000
  -1.9160000 -14.0640000  16.2260000  -2.8750000 -13.5330000  16.1360000
  -0.8090000 -13.2550000  15.5050000   0.1500000 -13.7860000  15.5940000
  -1.0680000 -13.1440000  14.4420000  -0.7220000 -12.2600000  15.9660000
  -2.2700000 -15.3650000  15.4530000  -3.0020000 -15.8890000  16.0840000
  -2.7590000 -15.0300000  14.5260000  -1.1220000 -16.3140000  15.1090000
  -0.6330000 -16.6500000  16.0350000  -1.5160000 -17.1860000  14.5660000
  -0.3890000 -15.7900000  14.4770000  -1.3430000 -12.9530000  18.4260000
  -0.1800000 -12.7410000  18.7720000  -2.3480000 -12.0690000  18.5670000
  -3.2700000 -12.3890000  18.3490000  -2.1690000 -10.6570000  18.9340000
  -1.1020000 -10.3920000  18.9130000  -2.9220000  -9.7570000  17.9260000
  -3.9960000  -9.9650000  18.0420000  -2.7190000  -8.7130000  18.2060000
  -2.5110000  -9.9830000  16.4570000  -1.4220000  -9.8510000  16.3770000
  -2.7740000 -11.0180000  16.1930000  -3.1930000  -9.0360000  15.4660000
  -3.8600000  -8.0750000  15.8450000  -3.0160000  -9.3040000  14.1710000
  -3.4390000  -8.7180000  13.4800000  -2.4620000 -10.0900000  13.8980000
  -2.6080000 -10.3300000  20.3740000  -2.3270000  -9.2210000  20.8290000
  -3.2520000 -11.2830000  21.0740000  -3.5940000 -12.0480000  20.5270000
  -3.6450000 -11.2080000  22.4920000  -4.1850000 -12.1270000  22.7650000
  -2.4120000 -11.0590000  23.4290000  -1.9620000 -10.0720000  23.2490000
  -2.7590000 -11.1200000  24.4710000  -1.3410000 -12.1340000  23.2060000
  -1.6080000 -13.3250000  23.3420000  -0.1200000 -11.7180000  22.8640000
   0.6080000 -12.3860000  22.7100000   0.0620000 -10.7400000  22.7640000
  -4.7420000 -10.1580000  22.7760000  -4.7020000  -9.5110000  23.8230000
  -5.7190000 -10.0280000  21.8600000  -5.5940000 -10.4870000  20.9690000
  -6.8960000  -9.1740000  22.0420000  -7.1920000  -9.1800000  23.0910000
  -6.5930000  -7.7150000  21.6220000  -7.4100000  -7.0750000  21.9550000
  -5.6650000  -7.3950000  22.0960000  -6.4290000  -7.4700000  20.1400000
  -7.5040000  -7.1480000  19.3030000  -6.9710000  -7.0280000  18.0950000
  -7.6620000  -6.7790000  17.2900000  -5.6550000  -7.2390000  18.0840000
  -5.0280000  -7.2120000  17.2920000  -5.2770000  -7.5120000  19.3860000
  -4.2300000  -7.7040000  19.6210000  -8.1080000  -9.7460000  21.2970000
  -7.9510000 -10.4260000  20.2810000  -9.2990000  -9.4100000  21.8120000
  -9.2940000  -8.9540000  22.7020000 -10.5860000  -9.7120000  21.1970000
 -10.5170000 -10.6160000  20.5740000 -11.6190000  -9.9610000  22.3140000
 -11.3210000 -10.8540000  22.8830000 -11.6430000  -9.0900000  22.9860000
 -13.0500000 -10.1950000  21.8540000 -13.3580000 -11.2910000  21.0200000
 -12.5600000 -11.9700000  20.6870000 -14.6670000 -11.5110000  20.6210000
 -14.9020000 -12.3680000  19.9720000 -15.6790000 -10.6560000  21.0370000
 -16.7150000 -10.8510000  20.7240000 -15.3900000  -9.5620000  21.8420000
 -16.1980000  -8.8860000  22.1570000 -14.0850000  -9.3210000  22.2500000
 -13.8580000  -8.4490000  22.8820000 -11.0240000  -8.5710000  20.2680000
 -11.0270000  -7.4140000  20.6900000 -11.4300000  -8.9390000  19.0450000
 -11.3030000  -9.8970000  18.7900000 -12.0320000  -8.0360000  18.0680000
 -11.7520000  -6.9860000  18.2400000 -11.6180000  -8.4310000  16.6210000
 -11.8370000  -9.5030000  16.5070000 -12.3370000  -7.6390000  15.5100000
 -12.1180000  -6.5670000  15.6230000 -11.9840000  -7.9830000  14.5270000
 -13.4220000  -7.8020000  15.5870000 -10.1010000  -8.2830000  16.4330000
  -9.5770000  -8.9380000  17.1450000  -9.8290000  -8.5670000  15.4060000
  -9.8080000  -7.2380000  16.6140000 -13.5610000  -8.1280000  18.2220000
 -14.1480000  -9.1460000  17.8540000 -14.1630000  -7.0670000  18.7870000
 -13.5630000  -6.3430000  19.1280000 -15.6090000  -6.9350000  19.0070000
 -16.0150000  -7.8770000  19.4040000 -15.8970000  -5.8060000  20.0250000
 -15.1900000  -5.8600000  20.8660000 -15.7100000  -4.8880000  19.4480000
 -17.3320000  -5.7870000  20.5660000 -17.7890000  -6.8610000  21.0190000
 -17.9170000  -4.6830000  20.5960000 -16.3730000  -6.6920000  17.6830000
 -17.5350000  -7.0820000  17.5670000 -15.6920000  -6.0650000  16.7110000
 -14.7680000  -5.7820000  16.9660000 -16.1770000  -5.7240000  15.3770000
 -17.1430000  -5.2010000  15.4440000 -15.1540000  -4.7890000  14.6800000
 -14.2100000  -5.3530000  14.6420000 -15.5320000  -4.6400000  13.6580000
 -14.9050000  -3.4100000  15.3450000 -14.3460000  -2.8150000  14.6080000
 -15.9000000  -2.9650000  15.4960000 -14.1420000  -3.4210000  16.6770000
 -14.3900000  -2.4910000  17.4740000 -13.3290000  -4.3500000  16.8820000
 -16.4270000  -6.9760000  14.5130000 -15.8120000  -8.0180000  14.7410000
 -17.3060000  -6.8270000  13.5110000 -17.8180000  -5.9690000  13.4690000
 -17.5980000  -7.8560000  12.5160000 -17.1040000  -8.8020000  12.7800000
 -19.1280000  -8.0910000  12.4750000 -19.4560000  -8.0400000  13.5240000
 -19.5600000  -7.2490000  11.9140000 -19.5980000  -9.4060000  11.8600000
 -19.2210000  -9.7930000  10.5530000 -18.5720000  -9.1320000   9.9590000
 -19.6690000 -11.0130000  10.0110000 -19.3490000 -11.3200000   9.0040000
 -20.5170000 -11.8470000  10.7650000 -20.9760000 -13.0160000  10.2370000
 -20.6470000 -13.1810000   9.3070000 -20.9030000 -11.4670000  12.0640000
 -21.5610000 -12.1210000  12.6550000 -20.4470000 -10.2510000  12.6070000
 -20.7520000  -9.9520000  13.6210000 -17.0260000  -7.3630000  11.1780000
 -17.6470000  -6.5240000  10.5240000 -15.8510000  -7.8960000  10.8090000
 -15.4070000  -8.5070000  11.4640000 -15.1650000  -7.6160000   9.5460000
 -15.7500000  -6.8940000   8.9580000 -13.7590000  -7.0180000   9.8090000
 -13.8580000  -6.1660000  10.4980000 -13.2020000  -7.8270000  10.3050000
 -13.0010000  -6.5720000   8.5480000 -13.6370000  -6.4620000   7.4760000
 -11.7910000  -6.2950000   8.6960000 -15.0880000  -8.9550000   8.7750000
 -14.3090000  -9.8200000   9.1830000 -15.9180000  -9.1380000   7.7180000
 -16.9200000  -8.1960000   7.2080000 -16.4290000  -7.2290000   7.0230000
 -17.7010000  -8.0690000   7.9720000 -17.4550000  -8.8350000   5.9300000
 -16.8710000  -8.5140000   5.0550000 -18.5140000  -8.5810000   5.7770000
 -17.2870000 -10.3200000   6.1950000 -17.1940000 -10.8920000   5.2600000
 -18.1250000 -10.7170000   6.7860000 -15.9830000 -10.4210000   7.0010000
 -16.0830000 -11.2150000   7.7560000 -14.7470000 -10.7000000   6.1220000
 -14.3830000  -9.8680000   5.2890000 -14.1140000 -11.8600000   6.3570000
 -14.5510000 -12.4820000   7.0070000 -12.8530000 -12.2780000   5.7340000
 -12.1780000 -11.4150000   5.6330000 -12.1490000 -13.3620000   6.5960000
 -12.8300000 -14.2260000   6.6010000 -10.7570000 -13.8130000   6.1440000
 -10.0750000 -12.9500000   6.1400000 -10.3760000 -14.5780000   6.8370000
 -10.8200000 -14.2360000   5.1300000 -12.0010000 -12.8700000   7.9070000
 -11.5490000 -13.5600000   8.4730000 -13.0600000 -12.8820000   4.3300000
 -14.0610000 -13.5610000   4.0970000 -12.0720000 -12.6550000   3.4490000
 -11.3960000 -11.9650000   3.7100000 -11.9270000 -13.3120000   2.1480000
 -12.8550000 -13.8060000   1.8260000 -11.4660000 -12.3050000   1.0480000
 -10.5430000 -11.8230000   1.4030000 -11.2020000 -12.9780000  -0.3200000
 -12.1240000 -13.4600000  -0.6760000 -10.8820000 -12.2180000  -1.0480000
 -10.4120000 -13.7350000  -0.2100000 -12.4880000 -11.1530000   0.8970000
 -13.4120000 -11.5960000   0.4970000 -12.6770000 -10.7580000   1.9060000
 -12.0300000 -10.0110000  -0.0210000 -11.8410000 -10.4050000  -1.0310000
 -12.8140000  -9.2410000  -0.0680000 -11.1050000  -9.5680000   0.3780000
 -10.8880000 -14.4440000   2.3200000 -11.2620000 -15.6160000   2.3070000
  -9.6570000 -14.0560000   2.6950000  -9.4700000 -13.0790000   2.5960000
  -8.5780000 -14.9240000   3.1630000  -8.9420000 -15.6070000   3.9440000
  -8.0600000 -15.7650000   1.9730000  -8.8410000 -16.4880000   1.6940000
  -7.8690000 -15.0870000   1.1280000  -6.5400000 -16.7300000   2.1960000
  -7.4880000 -14.0280000   3.7920000  -7.1070000 -13.0460000   3.1560000
  -7.0150000 -14.3720000   5.0000000  -7.5440000 -15.0830000   5.4640000
  -5.8520000 -13.8100000   5.6890000  -5.2520000 -13.2570000   4.9510000
  -6.2140000 -12.8510000   6.8530000  -6.7450000 -13.5130000   7.5530000
  -5.2940000 -12.4780000   7.3280000  -7.1130000 -11.6690000   6.4870000
  -6.7190000 -10.9180000   5.5660000  -8.1300000 -11.4820000   7.1880000
  -5.0320000 -14.9830000   6.2380000  -5.6030000 -16.0270000   6.5530000
  -3.7160000 -14.7820000   6.3890000  -3.3030000 -13.9950000   5.9300000
  -2.8350000 -15.7170000   7.0900000  -3.4320000 -16.5050000   7.5720000
  -1.8580000 -16.3780000   6.0960000  -1.4450000 -17.2790000   6.5730000
  -2.4270000 -16.6660000   5.2000000  -0.8010000 -15.5160000   5.7250000
  -0.1970000 -15.9870000   5.0820000  -2.1310000 -14.9980000   8.2490000
  -1.8820000 -13.7930000   8.1780000  -1.8390000 -15.7740000   9.3000000
  -2.1010000 -16.7360000   9.2240000  -1.2020000 -15.3270000  10.5340000
  -0.7380000 -14.3400000  10.3900000  -2.2650000 -15.2130000  11.6450000
  -2.7180000 -16.2100000  11.7520000  -1.7140000 -14.9610000  12.5630000
  -3.3590000 -14.1820000  11.4110000  -4.5130000 -14.5180000  10.6690000
  -4.6140000 -15.5280000  10.2460000  -5.5310000 -13.5670000  10.4690000
  -6.4310000 -13.8360000   9.8970000  -5.3990000 -12.2720000  11.0030000
  -6.3810000 -11.3470000  10.8040000  -7.1470000 -11.6990000  10.2660000
  -4.2490000 -11.9310000  11.7420000  -4.1470000 -10.9190000  12.1600000
  -3.2320000 -12.8830000  11.9460000  -2.3350000 -12.6150000  12.5240000
  -0.1110000 -16.3330000  10.9270000  -0.2090000 -17.5080000  10.5700000
   0.8990000 -15.8550000  11.6720000   0.8960000 -14.8780000  11.8860000
   2.0440000 -16.6570000  12.1050000   1.8440000 -17.7240000  11.9250000
   3.3090000 -16.2520000  11.3160000   4.1280000 -16.8840000  11.6890000
   3.1120000 -16.4920000  10.2610000   3.7070000 -14.7700000  11.4390000
   2.9630000 -14.1770000  10.8870000   3.6720000 -14.5010000  12.5050000
   5.1070000 -14.4770000  10.8850000   5.8190000 -15.2210000  11.2710000
   5.0860000 -14.5250000   9.7860000   5.5590000 -13.1390000  11.2880000
   5.5560000 -12.4390000  10.5740000   5.9730000 -12.7970000  12.5220000
   6.0570000 -13.7020000  13.5090000   5.8080000 -14.6540000  13.3330000
   6.3680000 -13.4200000  14.4170000   6.3030000 -11.5250000  12.7730000
   6.2400000 -10.8420000  12.0450000   6.6120000 -11.2630000  13.6870000
   2.2580000 -16.5440000  13.6230000   2.1130000 -15.4560000  14.1810000
   2.6500000 -17.6660000  14.2490000   2.6210000 -18.5170000  13.7240000
   3.0250000 -17.7350000  15.6600000   3.5110000 -16.7960000  15.9620000
   1.7750000 -17.9500000  16.5440000   1.0890000 -17.1200000  16.3210000
   1.3220000 -18.8980000  16.2170000   2.0390000 -18.0040000  18.0600000
   2.6280000 -18.9080000  18.2770000   2.6180000 -17.1130000  18.3430000
   0.7280000 -18.0400000  18.8660000   0.1140000 -17.1940000  18.5220000
   0.2220000 -18.9850000  18.6170000   0.9190000 -17.9480000  20.3880000
  -0.0600000 -18.0910000  20.8680000   1.6010000 -18.7520000  20.7000000
   1.4780000 -16.6460000  20.7920000   1.6210000 -16.0790000  19.9810000
   0.8410000 -16.1870000  21.4110000   2.3510000 -16.7880000  21.2580000
   4.0730000 -18.8300000  15.8630000   3.7810000 -20.0000000  15.6240000
   5.2540000 -18.4240000  16.3560000   5.4700000 -17.4490000  16.3010000
   6.2640000 -19.3270000  16.8970000   6.2330000 -20.2950000  16.3750000
   7.6610000 -18.7050000  16.6970000   7.8020000 -18.5580000  15.6160000
   7.6600000 -17.7280000  17.2030000   8.8130000 -19.5710000  17.2530000
   8.7390000 -19.5920000  18.3500000   8.6750000 -20.5880000  16.8570000
  10.2110000 -19.0810000  16.8660000  11.1050000 -19.0420000  17.7080000
  10.4250000 -18.7230000  15.5980000  11.3290000 -18.3990000  15.3190000
   9.6810000 -18.7800000  14.9330000   5.9300000 -19.5950000  18.3730000
   5.7470000 -18.6430000  19.1340000   5.8430000 -20.8810000  18.7360000
   6.0170000 -21.5750000  18.0370000   5.4530000 -21.3260000  20.0710000
   5.9280000 -20.7770000  20.8970000   3.9050000 -21.2700000  20.2600000
   3.6060000 -20.2200000  20.1230000   3.1010000 -22.1640000  19.2920000
   3.3990000 -23.2140000  19.4290000   2.0260000 -22.0580000  19.5010000
   3.3040000 -21.8580000  18.2550000   3.4700000 -21.5470000  21.7060000
   3.9160000 -20.7960000  22.3740000   2.3740000 -21.4940000  21.7770000
   3.8080000 -22.5500000  22.0060000   5.9760000 -22.7490000  20.3170000
   5.8970000 -23.5890000  19.4220000   6.5060000 -22.9930000  21.5250000
   6.5770000 -22.2390000  22.1770000   7.0280000 -24.3000000  21.9170000
   7.4220000 -24.8510000  21.0500000   8.1500000 -24.1890000  22.9870000
   7.7350000 -23.6350000  23.8420000   8.6820000 -25.5570000  23.4700000
   9.0970000 -26.1120000  22.6160000   9.4690000 -25.4010000  24.2220000
   7.8590000 -26.1340000  23.9160000   9.3290000 -23.3500000  22.4580000
   8.9770000 -22.3380000  22.2080000  10.1090000 -23.2850000  23.2310000
   9.7440000 -23.8260000  21.5580000   5.8800000 -25.1740000  22.4550000
   5.2640000 -24.8190000  23.4600000   5.6260000 -26.2930000  21.7610000
   6.1670000 -26.4390000  20.9320000   4.6320000 -27.3000000  22.1260000
   4.1840000 -27.1010000  23.1110000   3.5000000 -27.4290000  21.0560000
   3.9870000 -27.5700000  20.0800000   2.5200000 -28.6010000  21.3180000
   2.0320000 -28.4600000  22.2940000   1.7570000 -28.6250000  20.5260000
   3.0750000 -29.5510000  21.3200000   2.7100000 -26.1060000  20.9020000
   2.0040000 -26.0490000  21.7440000   3.4370000 -25.2840000  20.9770000
   1.9390000 -25.9890000  19.5800000   1.2120000 -26.8110000  19.5050000
   1.4070000 -25.0270000  19.5490000   2.6440000 -26.0450000  18.7380000
   5.3820000 -28.6350000  22.2430000   5.8480000 -29.1630000  21.2320000
   5.4850000 -29.1440000  23.4830000   5.2770000 -28.5040000  24.2230000
   6.0670000 -30.4510000  23.8330000   6.1260000 -30.5190000  24.9290000
   5.2450000 -31.6620000  23.3030000   5.4640000 -31.7050000  22.2260000
   5.6150000 -32.5760000  23.7890000   3.7280000 -31.5500000  23.5120000
   3.3130000 -30.9230000  24.5130000   2.9910000 -32.1330000  22.6890000
   7.5740000 -30.5610000  23.5050000   8.0490000 -31.6360000  23.1360000
   8.2980000 -29.4370000  23.6510000   7.7990000 -28.6180000  23.9340000
   9.7400000 -29.3290000  23.4280000  10.1240000 -28.5260000  24.0740000
  10.2010000 -30.2840000  23.7190000  10.1120000 -29.0170000  21.9660000
  11.2850000 -28.7530000  21.7050000   9.1470000 -29.0210000  21.0270000
   8.2360000 -29.3170000  21.3140000   9.3510000 -28.6660000  19.6210000
  10.4170000 -28.7300000  19.3580000   8.5640000 -29.6540000  18.7330000
   8.9410000 -30.6610000  18.9640000   7.5080000 -29.5800000  19.0310000
   8.6910000 -29.3920000  17.2140000   8.3640000 -28.3640000  17.0000000
   9.7550000 -29.4980000  16.9580000   7.8660000 -30.3720000  16.3810000
   6.6460000 -30.4600000  16.6380000   8.4590000 -31.0050000  15.4810000
   8.8970000 -27.2190000  19.3850000   7.7770000 -26.8760000  19.7600000
   9.7490000 -26.4250000  18.7160000  10.6630000 -26.7860000  18.5320000
   9.4340000 -25.0680000  18.2640000   8.8950000 -24.5280000  19.0560000
  10.7290000 -24.2830000  17.9200000  11.2730000 -24.8860000  17.1780000
  10.5090000 -22.8650000  17.3660000   9.9650000 -22.2620000  18.1080000
  11.4830000 -22.3980000  17.1560000   9.9220000 -22.9210000  16.4380000
  11.5110000 -24.1530000  19.0920000  12.3480000 -23.6480000  18.8810000
   8.5240000 -25.1390000  17.0190000   8.9740000 -25.5510000  15.9510000
   7.2450000 -24.7850000  17.1990000   6.9990000 -24.3860000  18.0820000
   6.1870000 -24.9850000  16.2110000   6.5440000 -25.6630000  15.4220000
   4.9330000 -25.6020000  16.8600000   4.5670000 -25.0030000  17.7070000
   4.1190000 -25.7460000  16.1350000   5.3070000 -27.2460000  17.5300000
   4.1120000 -27.4840000  17.9830000   5.8470000 -23.6390000  15.5550000
   5.3190000 -22.7530000  16.2280000   6.1490000 -23.5230000  14.2510000
   6.6600000 -24.2810000  13.8460000   5.8420000 -22.3640000  13.4080000
   5.8280000 -21.4460000  14.0130000   6.9290000 -22.2180000  12.3110000
   7.2310000 -23.2620000  12.1420000   6.4970000 -21.8080000  11.3860000
   8.1640000 -21.3850000  12.7150000   7.8450000 -20.3340000  12.7780000
   8.7830000 -21.8110000  14.0520000   9.1030000 -22.8620000  13.9900000
   9.6540000 -21.1760000  14.2720000   8.0370000 -21.7010000  14.8530000
   9.2190000 -21.3950000  11.5950000   8.7860000 -20.9660000  10.6790000
  10.0890000 -20.7970000  11.9040000   9.5380000 -22.4300000  11.4000000
   4.4370000 -22.5540000  12.8140000   4.2900000 -23.1280000  11.7350000
   3.4230000 -22.0890000  13.5580000   3.6560000 -21.6590000  14.4300000
   2.0110000 -22.2070000  13.1990000   1.8040000 -23.2180000  12.8190000
   1.1200000 -21.9530000  14.4370000   1.2670000 -20.8760000  14.6040000
   0.0630000 -22.1450000  14.1990000   1.5080000 -22.7280000  15.7120000
   2.4710000 -22.3470000  16.0830000   0.4340000 -22.5520000  16.7980000
  -0.5290000 -22.9340000  16.4280000   0.7280000 -23.1110000  17.6990000
   0.3340000 -21.4850000  17.0460000   1.8010000 -24.2110000  15.4480000
   2.6360000 -24.3000000  14.7370000   2.0710000 -24.7060000  16.3930000
   0.9070000 -24.6920000  15.0240000   1.6740000 -21.2140000  12.0820000
   1.7180000 -20.0120000  12.3280000   1.3570000 -21.7350000  10.8890000
   1.4060000 -22.7310000  10.8140000   1.0220000 -20.9660000   9.6940000
   1.2600000 -19.9030000   9.8450000   1.8490000 -21.4930000   8.4900000
   2.8970000 -21.6300000   8.7950000   1.3950000 -22.4740000   8.2890000
   1.7940000 -20.6350000   7.2200000   1.5460000 -19.4130000   7.3390000
   2.0860000 -21.2070000   6.1470000  -0.5020000 -21.1020000   9.5180000
  -0.9670000 -22.0160000   8.8390000  -1.2500000 -20.2390000  10.2210000
  -0.7700000 -19.4760000  10.6530000  -2.6960000 -20.3460000  10.4120000
  -3.0570000 -21.3770000  10.2870000  -3.1050000 -19.8190000  11.8230000
  -2.6750000 -18.8120000  11.9280000  -4.6320000 -19.7550000  12.0600000
  -5.0620000 -20.7620000  11.9560000  -4.8310000 -19.3760000  13.0730000
  -5.0900000 -19.0830000  11.3200000  -2.4560000 -20.6530000  12.9530000
  -3.1620000 -21.4550000  13.2140000  -1.5350000 -21.0950000  12.5460000
  -2.1210000 -19.8390000  14.2070000  -3.0420000 -19.3970000  14.6150000
  -1.6650000 -20.4970000  14.9610000  -1.4150000 -19.0370000  13.9470000
  -3.4480000 -19.5380000   9.3410000  -3.3390000 -18.3130000   9.3310000
  -4.2220000 -20.2340000   8.4900000  -4.1540000 -21.2320000   8.5070000
  -5.1130000 -19.6170000   7.5080000  -4.7050000 -18.6480000   7.1850000
  -5.2490000 -20.5320000   6.2700000  -4.2050000 -20.8170000   6.0740000
  -5.8390000 -21.4320000   6.4970000  -5.8360000 -19.8340000   5.0200000
  -6.7830000 -19.3540000   5.3090000  -4.8770000 -18.7740000   4.4410000
  -3.9310000 -19.2540000   4.1510000  -5.3360000 -18.3070000   3.5570000
  -4.6790000 -18.0040000   5.2010000  -6.2610000 -20.8550000   3.9500000
  -7.0280000 -21.5250000   4.3660000  -6.6730000 -20.3240000   3.0790000
  -5.3870000 -21.4460000   3.6390000  -6.4860000 -19.3390000   8.1390000
  -7.1520000 -20.2660000   8.5950000  -6.8920000 -18.0660000   8.1020000
  -6.1950000 -17.4000000   7.8380000  -8.2190000 -17.5760000   8.4540000
  -8.7360000 -18.2970000   9.1040000  -8.0770000 -16.2390000   9.2150000
  -7.4660000 -16.4180000  10.1120000  -7.5180000 -15.6050000   8.5110000
  -9.3760000 -15.5340000   9.6140000 -10.4340000 -16.1950000   9.6970000
  -9.2660000 -14.3200000   9.8960000  -9.0020000 -17.4410000   7.1350000
  -8.5780000 -16.6920000   6.2540000 -10.0980000 -18.2030000   7.0130000
 -10.3970000 -18.7110000   7.8210000 -10.8550000 -18.3680000   5.7680000
 -10.4020000 -17.8860000   4.8890000 -11.0590000 -19.8820000   5.4560000
 -11.4870000 -19.9610000   4.4460000  -9.7530000 -20.6900000   5.5240000
  -9.3250000 -20.6120000   6.5340000  -9.9620000 -21.7460000   5.2960000
  -9.0360000 -20.2910000   4.7910000 -12.0440000 -20.5150000   6.2550000
 -12.1150000 -21.4780000   5.9960000 -12.2270000 -17.6690000   5.8400000
 -12.6580000 -17.2510000   6.9160000 -12.8840000 -17.5540000   4.6740000
 -12.3970000 -17.8320000   3.8460000 -14.2440000 -17.0380000   4.5370000
 -14.3760000 -16.1360000   5.1520000 -14.4880000 -16.6680000   3.0670000
 -14.3680000 -17.5630000   2.4390000 -15.5080000 -16.2730000   2.9520000
 -13.7620000 -15.9020000   2.7560000 -15.2890000 -18.0710000   4.9820000
 -15.2370000 -19.2190000   4.5370000 -16.2520000 -17.6190000   5.8010000
 -16.1330000 -16.7160000   6.2140000 -17.4630000 -18.3750000   6.1220000
 -17.2470000 -19.4520000   6.0630000 -17.7910000 -18.1230000   7.1410000
 -18.5910000 -18.0370000   5.1360000 -19.5480000 -18.8050000   5.0410000
 -18.4730000 -16.9170000   4.3970000 -17.7440000 -16.2880000   4.6650000
 -19.3520000 -16.5290000   3.2960000 -20.4040000 -16.5730000   3.6150000
 -19.0280000 -15.0810000   2.8610000 -17.9390000 -15.0100000   2.7250000
 -19.5290000 -14.9020000   1.8980000 -19.4890000 -14.0200000   3.8860000
 -20.5610000 -14.1810000   4.0700000 -18.9280000 -14.1980000   4.8150000
 -19.2790000 -12.5610000   3.4570000 -19.8680000 -11.6590000   4.0490000
 -18.4520000 -12.2990000   2.4430000 -18.3050000 -11.3530000   2.1530000
 -17.9830000 -13.0490000   1.9780000 -19.2220000 -17.5050000   2.1150000
 -18.1110000 -17.7270000   1.6280000 -20.3700000 -18.0430000   1.6670000
 -21.1880000 -17.8380000   2.2050000 -20.4940000 -18.9780000   0.5400000
 -19.7670000 -19.7980000   0.6410000 -21.9190000 -19.5790000   0.5270000
 -22.6190000 -18.7310000   0.5050000 -22.0110000 -20.1540000  -0.4060000
 -22.2530000 -20.4920000   1.7290000 -22.1390000 -19.8970000   2.6470000
 -23.3070000 -20.7850000   1.6110000 -21.3820000 -21.7490000   1.8250000
 -21.0220000 -22.3020000   0.7620000 -21.0650000 -22.1380000   2.9700000
 -20.1320000 -18.3780000  -0.8360000 -19.9360000 -19.1380000  -1.7850000
 -19.9960000 -17.0420000  -0.9020000 -20.3370000 -16.5520000  -0.1000000
 -19.4760000 -16.2590000  -2.0250000 -20.0840000 -16.3950000  -2.9310000
 -19.5480000 -14.7700000  -1.5990000 -20.5920000 -14.6000000  -1.2950000
 -18.8920000 -14.6830000  -0.7200000 -19.1400000 -13.7140000  -2.6520000
 -19.1690000 -12.7440000  -2.1340000 -18.1080000 -13.9310000  -2.9650000
 -20.0470000 -13.6610000  -3.8860000 -19.5480000 -13.1790000  -4.9270000
 -21.2220000 -14.0750000  -3.7740000 -18.0440000 -16.6620000  -2.4480000
 -17.7060000 -16.5340000  -3.6240000 -17.2480000 -17.1510000  -1.4810000
 -17.6550000 -17.2050000  -0.5690000 -15.8420000 -17.5270000  -1.6370000
 -15.4900000 -17.3200000  -2.6580000 -15.0090000 -16.6840000  -0.6480000
 -15.3230000 -16.9570000   0.3700000 -13.9600000 -16.9800000  -0.8000000
 -15.1430000 -15.1820000  -0.8320000 -14.6880000 -14.5730000  -2.0200000
 -14.2170000 -15.1870000  -2.8020000 -14.8350000 -13.1850000  -2.2070000
 -14.4960000 -12.7160000  -3.1420000 -15.4310000 -12.4000000  -1.2010000
 -15.5610000 -11.0520000  -1.3680000 -15.1990000 -10.7300000  -2.2430000
 -15.8810000 -13.0040000  -0.0110000 -16.3430000 -12.3890000   0.7750000
 -15.7400000 -14.3920000   0.1740000 -16.0950000 -14.8620000   1.1030000
 -15.6090000 -19.0380000  -1.4370000 -14.4680000 -19.4380000  -1.2030000
 -16.6680000 -19.8620000  -1.5520000 -17.5640000 -19.4260000  -1.6370000
 -16.6150000 -21.3220000  -1.3930000 -16.0410000 -21.5840000  -0.4920000
 -18.0430000 -21.8850000  -1.2480000 -17.9650000 -22.9360000  -0.9340000
 -18.5600000 -21.3070000  -0.4670000 -18.7760000 -21.8070000  -2.4550000
 -19.6920000 -22.1820000  -2.3130000 -15.7950000 -22.0840000  -2.4600000
 -15.4390000 -23.2350000  -2.2110000 -15.4780000 -21.4400000  -3.5990000
 -15.9150000 -20.5550000  -3.7580000 -14.6050000 -21.9830000  -4.6460000
 -14.9320000 -23.0140000  -4.8450000 -14.7880000 -21.1550000  -5.9260000
 -14.4560000 -20.1220000  -5.7450000 -14.1900000 -21.5960000  -6.7370000
 -15.8500000 -21.1530000  -6.2140000 -13.1160000 -22.0410000  -4.2490000
 -12.3740000 -22.8270000  -4.8360000 -12.7110000 -21.2310000  -3.2530000
 -13.3840000 -20.5750000  -2.9110000 -11.3560000 -21.1920000  -2.6930000
 -10.6070000 -21.2200000  -3.4980000 -11.1720000 -19.8820000  -1.8930000
 -11.8880000 -19.9060000  -1.0590000 -10.1460000 -19.8840000  -1.4950000
 -11.3970000 -18.6050000  -2.7250000 -10.6330000 -18.6060000  -3.5170000
 -12.3950000 -18.6960000  -3.1780000 -11.3000000 -17.0440000  -1.8060000
  -9.5720000 -17.0640000  -1.2690000  -8.9140000 -17.0950000  -2.1500000
  -9.3580000 -16.1570000  -0.6850000  -9.3910000 -17.9520000  -0.6450000
 -11.0230000 -22.4110000  -1.8080000  -9.8410000 -22.6580000  -1.5640000
 -12.0620000 -23.1320000  -1.3440000 -12.9660000 -22.7850000  -1.5940000
 -11.9830000 -24.2600000  -0.4160000 -11.4610000 -23.9530000   0.5020000
 -13.3950000 -24.7430000  -0.0420000 -13.9310000 -24.9640000  -0.9770000
 -13.2880000 -25.6670000   0.5460000 -14.1880000 -23.7090000   0.7710000
 -13.5890000 -23.4500000   1.6560000 -14.3170000 -22.8160000   0.1420000
 -15.5620000 -24.2220000   1.2170000 -16.1130000 -24.6040000   0.3450000
 -15.4320000 -25.0310000   1.9510000 -16.3470000 -23.1470000   1.8360000
 -15.8270000 -22.3340000   2.1000000 -17.6690000 -23.1680000   2.0750000
 -18.4370000 -24.2050000   1.7110000 -18.0250000 -24.9900000   1.2490000
 -19.4180000 -24.1890000   1.9040000 -18.2330000 -22.1230000   2.6870000
 -17.6700000 -21.3430000   2.9580000 -19.2160000 -22.1260000   2.8710000
 -11.1000000 -25.4230000  -0.8790000 -10.2970000 -25.8740000  -0.0680000
 -11.2260000 -25.8760000  -2.1420000 -11.9750000 -25.5190000  -2.6990000
 -10.4540000 -27.0150000  -2.6600000 -10.5840000 -27.8430000  -1.9470000
 -10.8460000 -27.5120000  -4.0730000 -10.6840000 -26.6390000  -4.7230000
 -10.1510000 -28.3150000  -4.3590000 -12.2890000 -28.0050000  -4.2320000
 -13.0380000 -28.0250000  -3.2310000 -12.6060000 -28.4070000  -5.3730000
  -8.9310000 -26.8410000  -2.5570000  -8.2870000 -27.7180000  -1.9880000
  -8.3770000 -25.7210000  -3.0540000  -8.9410000 -25.0840000  -3.5790000
  -6.9290000 -25.4970000  -3.0160000  -6.4050000 -26.4210000  -3.3040000
  -6.5180000 -24.3710000  -3.9930000  -6.9690000 -24.6250000  -4.9640000
  -6.9740000 -23.4470000  -3.6080000  -4.9920000 -24.1580000  -4.1730000
  -4.8320000 -23.4180000  -4.9710000  -4.6040000 -23.7620000  -3.2230000
  -4.2170000 -25.4350000  -4.5250000  -3.3430000 -25.8620000  -3.7760000
  -4.5450000 -26.0620000  -5.6570000  -4.0630000 -26.8980000  -5.9200000
  -5.2720000 -25.6940000  -6.2360000  -6.3710000 -25.2970000  -1.5910000
  -5.2900000 -25.8240000  -1.3200000  -7.1160000 -24.6170000  -0.6920000
  -7.8570000 -24.0320000  -1.0210000  -6.6900000 -24.4810000   0.7080000
  -5.5940000 -24.3900000   0.7280000  -7.3040000 -23.2450000   1.4240000
  -6.5720000 -22.9140000   2.1760000  -7.2900000 -22.5530000   0.5690000
  -8.7030000 -23.2590000   2.0460000  -9.0610000 -24.1820000   3.0550000
  -8.3380000 -24.9530000   3.3590000 -10.3260000 -24.1230000   3.6690000
 -10.6200000 -24.8990000   4.3910000 -11.2280000 -23.1000000   3.3320000
 -12.4230000 -23.0170000   3.9880000 -12.5410000 -23.7310000   4.6780000
 -10.8730000 -22.1520000   2.3530000 -11.5700000 -21.3420000   2.0940000
  -9.6230000 -22.2420000   1.7040000  -9.3560000 -21.5160000   0.9220000
  -6.7710000 -25.7960000   1.5020000  -5.9540000 -25.9890000   2.4010000
  -7.7260000 -26.6780000   1.1590000  -8.4250000 -26.3750000   0.5110000
  -7.8950000 -27.9810000   1.8020000  -7.7020000 -27.8900000   2.8810000
  -9.3300000 -28.5060000   1.6010000  -9.5820000 -28.4060000   0.5350000
  -9.3450000 -29.5690000   1.8820000 -10.3600000 -27.7370000   2.4460000
 -10.1590000 -27.9750000   3.5010000 -10.1870000 -26.6640000   2.2730000
 -12.0850000 -28.1300000   2.0660000 -12.9280000 -26.9430000   3.1460000
 -12.6320000 -25.9200000   2.8690000 -14.0170000 -27.0530000   3.0330000
 -12.6480000 -27.1350000   4.1920000  -6.8150000 -28.9980000   1.3920000
  -6.3830000 -29.7590000   2.2540000  -6.3350000 -28.9580000   0.1340000
  -6.8140000 -28.3860000  -0.5310000  -5.1870000 -29.7550000  -0.3290000
  -5.3500000 -30.8160000  -0.0880000  -5.0100000 -29.6180000  -1.8580000
  -4.8920000 -28.5470000  -2.0790000  -4.0870000 -30.1520000  -2.1300000
  -6.1840000 -30.1810000  -2.6690000  -6.2380000 -31.2610000  -2.4650000
  -7.1000000 -29.6930000  -2.3060000  -6.0470000 -29.9520000  -4.1800000
  -5.6980000 -28.9250000  -4.3630000  -5.3180000 -30.6660000  -4.5920000
  -7.3340000 -30.1420000  -4.8690000  -7.7570000 -29.2960000  -5.1930000
  -7.9700000 -31.3040000  -5.0960000  -9.1780000 -31.2820000  -5.6790000
  -9.5900000 -30.4080000  -5.9360000  -9.6610000 -32.1400000  -5.8530000
  -7.4330000 -32.4850000  -4.7580000  -6.5330000 -32.5160000  -4.3230000
  -7.9350000 -33.3300000  -4.9420000  -3.8740000 -29.3700000   0.3770000
  -3.1010000 -30.2610000   0.7280000  -3.6610000 -28.0580000   0.5690000
  -4.3900000 -27.4370000   0.2800000  -2.4310000 -27.4800000   1.1130000
  -1.5460000 -28.0590000   0.8100000  -2.2720000 -26.0220000   0.5940000
  -3.1970000 -25.5000000   0.8810000  -1.0580000 -25.2320000   1.1110000
  -0.1320000 -25.7530000   0.8240000  -1.0620000 -24.2240000   0.6710000
  -1.1100000 -25.1540000   2.2070000  -2.1810000 -26.0360000  -0.8170000
  -2.0790000 -25.1000000  -1.1530000  -2.3760000 -27.4880000   2.6610000
  -1.2760000 -27.5130000   3.2140000  -3.5410000 -27.4910000   3.3320000
  -4.3850000 -27.5240000   2.7960000  -3.6470000 -27.4500000   4.7910000
  -2.8710000 -26.7830000   5.1940000  -4.6400000 -27.0690000   5.0720000
  -3.4620000 -28.8440000   5.3880000  -4.0290000 -29.8110000   4.8850000
  -2.7040000 -28.9190000   6.4910000  -2.2560000 -28.0750000   6.7860000
  -2.4460000 -30.1430000   7.2490000  -2.4870000 -31.0180000   6.5840000
  -1.0400000 -30.0710000   7.8840000  -1.0290000 -29.1950000   8.5490000
  -0.9070000 -30.9850000   8.4810000   0.1060000 -29.9540000   6.8620000
   0.1040000 -30.8630000   6.2430000  -0.0670000 -29.0750000   6.2230000
   1.4580000 -29.8180000   7.5610000   2.1060000 -30.8660000   7.7750000
   1.8120000 -28.6620000   7.8820000  -3.5150000 -30.3730000   8.3310000
  -3.9730000 -31.5060000   8.4750000  -3.8810000 -29.3040000   9.0610000
  -3.4720000 -28.4240000   8.8190000  -4.8290000 -29.3450000  10.1740000
  -5.1890000 -30.3750000  10.3120000  -4.3320000 -29.0040000  11.0940000
  -6.0240000 -28.4340000   9.8880000  -5.8990000 -27.4430000   9.1690000
  -7.1820000 -28.7840000  10.4750000  -7.1580000 -29.6000000  11.0520000
  -8.4680000 -28.1170000  10.2700000  -8.3080000 -27.1120000   9.8520000
  -9.3360000 -28.9270000   9.2850000  -9.2180000 -29.9410000   9.6940000
 -10.4060000 -28.6950000   9.1830000  -8.7630000 -28.9560000   7.8820000
  -7.7950000 -29.9230000   7.5450000  -7.5960000 -30.7590000   8.2320000
  -7.0960000 -29.8240000   6.3550000  -6.3430000 -30.5830000   6.0970000
  -7.3440000 -28.7700000   5.4890000  -6.7770000 -28.6980000   4.5490000
  -8.3000000 -27.8090000   5.7990000  -8.5020000 -26.9890000   5.0940000
  -8.9990000 -27.8830000   6.9960000  -9.7350000 -27.1070000   7.2520000
  -9.1820000 -27.9010000  11.6080000  -9.6720000 -28.8520000  12.2120000
  -9.2400000 -26.6350000  12.0380000  -8.7010000 -25.9650000  11.5270000
  -9.9610000 -26.1840000  13.2200000  -9.9960000 -26.9760000  13.9820000
  -9.2140000 -24.9590000  13.8120000  -8.1710000 -25.1210000  13.5040000
  -9.5840000 -24.0220000  13.3710000  -9.2870000 -24.8680000  15.3470000
 -10.3370000 -24.9890000  15.6520000  -8.4260000 -25.9550000  16.0260000
  -7.3760000 -25.8340000  15.7220000  -8.5050000 -25.8560000  17.1190000
  -8.7830000 -26.9500000  15.7210000  -8.8980000 -23.4670000  15.8480000
  -9.5850000 -22.7210000  15.4220000  -8.9620000 -23.4390000  16.9460000
  -7.8690000 -23.2380000  15.5340000 -11.4050000 -25.8880000  12.7810000
 -11.6670000 -24.8340000  12.2040000 -12.2930000 -26.8710000  12.9920000
 -11.9480000 -27.6950000  13.4420000 -13.6860000 -26.8540000  12.5490000
 -13.7760000 -26.2410000  11.6400000 -14.1830000 -28.2780000  12.2340000
 -13.8820000 -29.0130000  12.9950000 -15.2720000 -28.3260000  12.0890000
 -13.4410000 -28.8370000  10.6740000 -14.0110000 -30.0050000  10.6630000
 -14.5450000 -26.1730000  13.6210000 -14.9540000 -26.8220000  14.5840000
 -14.7580000 -24.8610000  13.4400000 -14.4420000 -24.4600000  12.5800000
 -15.4040000 -23.9890000  14.4120000 -15.3100000 -24.3820000  15.4350000
 -14.8120000 -22.5470000  14.3760000 -15.0480000 -22.1130000  13.3930000
 -15.3740000 -21.6370000  15.4880000 -15.1380000 -22.0700000  16.4710000
 -14.9200000 -20.6380000  15.4090000 -16.4650000 -21.5530000  15.3770000
 -13.2760000 -22.5420000  14.4730000 -12.8530000 -23.1040000  13.6270000
 -12.9100000 -21.5050000  14.4440000 -12.9660000 -23.0130000  15.4170000
 -16.9170000 -23.8900000  14.1400000 -17.3300000 -23.6310000  13.0110000
 -17.7020000 -24.0460000  15.2120000 -17.2850000 -24.5040000  15.9970000
 -19.1070000 -23.6590000  15.3010000 -19.4000000 -23.0850000  14.4100000
 -19.9920000 -24.9260000  15.3860000 -21.0370000 -24.7360000  15.1010000
 -19.5280000 -25.5970000  14.6480000 -20.0300000 -25.6870000  16.7020000
 -19.0310000 -26.6320000  17.0060000 -18.2550000 -26.8690000  16.2630000
 -19.0250000 -27.2640000  18.2420000 -18.2630000 -28.0270000  18.4600000
 -19.9740000 -26.9370000  19.2010000 -19.9550000 -27.4380000  20.1800000
 -20.9440000 -25.9830000  18.9290000 -21.6850000 -25.7230000  19.6990000
 -20.9810000 -25.3580000  17.6910000 -21.7530000 -24.6040000  17.4780000
 -19.2410000 -22.7490000  16.5330000 -18.4070000 -22.8150000  17.4360000
 -20.3040000 -21.9340000  16.5650000 -20.8580000 -21.8380000  15.7380000
 -20.6640000 -21.1400000  17.7370000 -19.8030000 -21.0180000  18.4110000
 -21.1350000 -19.7540000  17.2890000 -22.0030000 -19.8590000  16.6210000
 -21.4220000 -19.1610000  18.1700000 -20.3210000 -19.2440000  16.7530000
 -21.7520000 -21.8710000  18.5310000 -22.7290000 -22.3230000  17.9370000
 -21.5680000 -21.9680000  19.8580000 -20.7240000 -21.5770000  20.2250000
 -22.4660000 -22.6770000  20.7800000 -22.7850000 -23.6700000  20.4320000
 -21.8510000 -22.8000000  22.2010000 -22.6230000 -23.1890000  22.8810000
 -20.6360000 -23.7430000  22.2130000 -19.8630000 -23.3550000  21.5330000
 -20.2290000 -23.8050000  23.2330000 -20.9460000 -24.7450000  21.8810000
 -21.5280000 -21.4390000  22.8700000 -20.4340000 -21.3710000  22.9660000
 -21.8860000 -20.6480000  22.1950000 -22.1730000 -21.2650000  24.2480000
 -21.8150000 -22.0560000  24.9230000 -21.9010000 -20.2810000  24.6590000
 -23.2670000 -21.3330000  24.1520000 -23.8880000 -22.0840000  20.9230000
 -24.7620000 -22.7720000  21.4480000 -24.1070000 -20.8550000  20.4300000
 -23.2920000 -20.3250000  20.1960000 -25.4120000 -20.1940000  20.3480000
 -26.1480000 -20.7330000  20.9620000 -25.2980000 -18.7380000  20.8730000
 -26.3300000 -18.3680000  20.9580000 -24.8400000 -18.7750000  21.8720000
 -24.4950000 -17.7600000  20.0000000 -23.4660000 -18.1130000  19.4290000
 -24.9560000 -16.5110000  19.9180000 -24.4690000 -15.8370000  19.3630000
 -25.7870000 -16.2550000  20.4120000 -26.0440000 -20.2810000  18.9370000
 -27.0720000 -19.6440000  18.7150000 -25.4420000 -21.0650000  18.0240000
 -24.6120000 -21.5370000  18.3210000 -25.8650000 -21.2170000  16.6330000
 -26.9010000 -20.8710000  16.5000000 -24.9350000 -20.3540000  15.7390000
 -24.9170000 -19.3480000  16.1840000 -23.9270000 -20.7920000  15.7810000
 -25.3560000 -20.2320000  14.2680000 -26.3070000 -20.8640000  13.8140000
 -24.6260000 -19.4170000  13.5040000 -24.8580000 -19.3010000  12.5380000
 -23.8510000 -18.9260000  13.9010000 -25.8410000 -22.7120000  16.2660000
 -24.7750000 -23.2590000  15.9780000 -27.0300000 -23.3380000  16.2600000
 -27.8230000 -22.8200000  16.5800000 -27.2210000 -24.7450000  15.8930000
 -26.4540000 -25.3680000  16.3760000 -28.6240000 -25.2510000  16.3350000
 -29.3480000 -24.5380000  15.9130000 -29.0050000 -26.6830000  15.9080000
 -28.2820000 -27.3970000  16.3300000 -30.0130000 -26.9210000  16.2780000
 -28.9920000 -26.7550000  14.8100000 -28.6990000 -25.2140000  17.7480000
 -29.5980000 -25.5380000  18.0430000 -27.0240000 -25.0200000  14.3850000
 -26.5900000 -26.1200000  14.0490000 -27.2730000 -24.0280000  13.5060000
 -27.7500000 -23.2140000  13.8370000 -27.0140000 -24.1460000  12.0650000
 -27.4250000 -25.0950000  11.6900000 -27.6790000 -22.9810000  11.2950000
 -28.7560000 -23.0550000  11.5050000 -27.2810000 -22.0570000  11.7400000
 -27.4530000 -22.9550000   9.7650000 -28.0100000 -22.0910000   9.3730000
 -26.3760000 -22.8010000   9.6030000 -27.9050000 -24.2350000   9.0310000
 -27.2240000 -25.0440000   9.3340000 -28.9240000 -24.4660000   9.3750000
 -27.8980000 -24.1070000   7.4990000 -28.2060000 -25.0740000   7.0750000
 -28.6300000 -23.3350000   7.2180000 -26.5720000 -23.7410000   6.9730000
 -26.3340000 -22.8190000   7.2800000 -25.8890000 -24.3900000   7.3080000
 -26.5920000 -23.7640000   5.9730000 -25.5150000 -24.2900000  11.7460000
 -25.1720000 -25.1190000  10.9080000 -24.6470000 -23.5370000  12.4460000
 -25.0140000 -22.8000000  13.0130000 -23.1910000 -23.6420000  12.2980000
 -22.9200000 -23.6580000  11.2320000 -22.5060000 -22.4340000  12.9610000
 -21.4860000 -22.3750000  12.5520000 -23.0710000 -21.5380000  12.6640000
 -22.4440000 -22.5060000  14.3730000 -21.9880000 -21.6900000  14.7280000
 -22.6070000 -24.9860000  12.7770000 -21.5840000 -25.4110000  12.2430000
 -23.2820000 -25.6280000  13.7470000 -23.9990000 -25.0990000  14.2010000
 -22.9690000 -26.9590000  14.2640000 -21.8850000 -27.0850000  14.3990000
 -23.6580000 -27.1120000  15.6360000 -23.2430000 -26.3370000  16.2980000
 -24.7420000 -26.9580000  15.5260000 -23.4790000 -28.4360000  16.3530000
 -22.2030000 -28.8190000  16.8100000 -21.3370000 -28.1640000  16.6350000
 -22.0390000 -30.0210000  17.4800000 -21.0460000 -30.3060000  17.8580000
 -23.1240000 -30.8650000  17.6760000 -22.9810000 -31.8170000  18.2090000
 -24.3830000 -30.5150000  17.2050000 -25.2330000 -31.1960000  17.3590000
 -24.5710000 -29.3100000  16.5410000 -25.5680000 -29.0400000  16.1640000
 -23.3170000 -28.0860000  13.2690000 -22.6000000 -29.0850000  13.2170000
 -24.3730000 -27.8710000  12.4650000 -24.9480000 -27.0860000  12.6960000
 -24.7810000 -28.7260000  11.3480000 -24.6960000 -29.7880000  11.6220000
 -26.2540000 -28.4220000  11.0020000 -26.3360000 -27.3400000  10.8230000
 -26.4960000 -28.9650000  10.0770000 -27.2420000 -28.8360000  12.1150000
 -27.2430000 -29.9350000  12.1680000 -26.8390000 -28.4240000  13.0520000
 -28.6750000 -28.3330000  11.9100000 -29.5310000 -28.7580000  12.7160000
 -28.9010000 -27.5280000  10.9780000 -23.8700000 -28.5600000  10.1150000
 -23.6380000 -29.5450000   9.4140000 -23.3390000 -27.3410000   9.8970000
 -23.7120000 -26.5990000  10.4530000 -22.3850000 -27.0010000   8.8280000
 -22.7250000 -27.4780000   7.8970000 -22.2490000 -25.4760000   8.5810000
 -21.8430000 -25.0950000   9.5300000 -21.5240000 -25.2930000   7.7740000
 -23.5630000 -24.7550000   8.2610000 -24.4970000 -25.4230000   7.7640000
 -23.5960000 -23.5190000   8.4470000 -20.9900000 -27.6300000   8.9960000
 -20.2590000 -27.6950000   8.0070000 -20.6530000 -28.1150000  10.2070000
 -21.2740000 -27.9190000  10.9660000 -19.4230000 -28.8650000  10.4900000
 -18.5060000 -28.3420000  10.1790000 -19.3090000 -29.2650000  11.9960000
 -20.2550000 -29.7600000  12.2610000 -18.1250000 -30.1970000  12.3430000
 -17.1790000 -29.7030000  12.0790000 -18.1340000 -30.4170000  13.4210000
 -18.2180000 -31.1360000  11.7770000 -19.3050000 -28.0390000  12.9340000
 -20.2570000 -27.5150000  12.7620000 -19.2840000 -28.4350000  13.9600000
 -18.1370000 -27.0570000  12.7390000 -18.1570000 -26.6610000  11.7130000
 -18.2320000 -26.2260000  13.4540000 -17.1850000 -27.5800000  12.9100000
 -19.3030000 -30.1490000   9.6440000 -18.1950000 -30.4700000   9.2180000
 -20.4400000 -30.8250000   9.3920000 -21.2650000 -30.5380000   9.8980000
 -20.5280000 -32.0060000   8.5370000 -19.8070000 -32.7570000   8.8600000
 -21.9430000 -32.6120000   8.6250000 -22.1310000 -32.9090000   9.6570000
 -22.6970000 -31.8900000   8.3120000 -22.1480000 -33.8450000   7.7770000
 -22.9120000 -33.8350000   6.6050000 -22.8320000 -35.0730000   6.1370000
 -23.3750000 -35.2700000   5.2130000 -22.0840000 -35.8720000   6.8990000
 -21.8680000 -36.8480000   6.7520000 -21.6360000 -35.1120000   7.9650000
 -21.0060000 -35.5650000   8.7300000 -20.1090000 -31.7140000   7.0860000
 -19.2600000 -32.4300000   6.5660000 -20.6730000 -30.6560000   6.4800000
 -21.4000000 -30.1710000   6.9870000 -20.3920000 -30.2430000   5.1010000
 -20.4750000 -31.0980000   4.4300000 -21.4010000 -29.1700000   4.6570000
 -21.3060000 -28.2370000   5.2130000 -21.2400000 -28.9780000   3.5960000
 -22.8340000 -29.6140000   4.8020000 -23.5930000 -29.3400000   5.9440000
 -24.7550000 -29.9430000   5.7310000 -25.4950000 -29.8470000   6.5260000
 -24.8090000 -30.5720000   4.5560000 -25.5780000 -31.1010000   4.1690000
 -23.5900000 -30.3720000   3.9320000 -23.4080000 -30.7940000   2.9430000
 -18.9440000 -29.7810000   4.8680000 -18.3900000 -30.0860000   3.8100000
 -18.3440000 -29.1110000   5.8680000 -18.9230000 -28.7520000   6.6000000
 -16.9180000 -28.7790000   5.8850000 -16.6270000 -28.3480000   4.9150000
 -16.6060000 -27.7510000   6.9950000 -17.3410000 -27.9280000   7.7940000
 -15.5950000 -27.9630000   7.3740000 -16.6850000 -26.3020000   6.5460000
 -15.6800000 -25.7800000   5.7050000 -14.8690000 -26.4360000   5.3560000
 -15.7110000 -24.4290000   5.3120000 -14.9350000 -24.0320000   4.6410000
 -16.7470000 -23.5900000   5.7640000 -16.7470000 -22.2680000   5.4280000
 -15.9660000 -22.0090000   4.8600000 -17.7710000 -24.1150000   6.5780000
 -18.5980000 -23.4670000   6.9040000 -17.7370000 -25.4670000   6.9740000
 -18.5320000 -25.8720000   7.6180000 -16.0350000 -30.0300000   6.0040000
 -15.1110000 -30.1640000   5.2050000 -16.3460000 -30.9300000   6.9560000
 -17.0470000 -30.6640000   7.6170000 -15.6190000 -32.1830000   7.1800000
 -14.5420000 -31.9790000   7.2680000 -16.1020000 -32.8600000   8.4830000
 -15.9080000 -32.1520000   9.3030000 -17.1860000 -33.0130000   8.3810000
 -15.4190000 -34.2080000   8.7950000 -15.7780000 -34.9410000   8.0580000
 -14.3350000 -34.0680000   8.6730000 -15.7110000 -34.7210000  10.2100000
 -15.2100000 -34.0630000  10.9360000 -16.7970000 -34.6930000  10.3790000
 -15.2370000 -36.1000000  10.4180000 -15.9720000 -36.7740000  10.4930000
 -13.9630000 -36.5270000  10.5020000 -12.9220000 -35.6920000  10.3890000
 -13.0810000 -34.7160000  10.2370000 -11.9900000 -36.0480000  10.4570000
 -13.7240000 -37.8270000  10.7180000 -14.4890000 -38.4640000  10.8140000
 -12.7810000 -38.1550000  10.7820000 -15.6450000 -33.1250000   5.9630000
 -14.5930000 -33.6510000   5.6100000 -16.8130000 -33.2870000   5.3200000
 -17.6280000 -32.8930000   5.7450000 -16.9830000 -34.1020000   4.1150000
 -16.5200000 -35.0890000   4.2640000 -18.4840000 -34.3030000   3.8050000
 -18.9390000 -33.3020000   3.7940000 -18.5410000 -34.7420000   2.7980000
 -19.2480000 -35.2050000   4.8030000 -19.1590000 -34.7150000   5.7840000
 -20.3040000 -35.2200000   4.4950000 -18.7250000 -36.6410000   4.9010000
 -18.7910000 -37.1910000   6.0230000 -18.2510000 -37.1660000   3.8710000
 -16.2310000 -33.5660000   2.8850000 -15.7380000 -34.3830000   2.1070000
 -16.1120000 -32.2310000   2.7420000 -16.6670000 -31.6350000   3.3220000
 -15.3060000 -31.6160000   1.6840000 -15.4570000 -32.1640000   0.7420000
 -15.7050000 -30.1420000   1.4670000 -16.7950000 -30.1110000   1.3250000
 -15.4390000 -29.5880000   2.3790000 -15.0060000 -29.4930000   0.2470000
 -13.9210000 -29.4970000   0.4260000 -15.2340000 -30.1100000  -0.6350000
 -15.4500000 -28.0550000  -0.0330000 -16.1780000 -27.4450000   0.7470000
 -14.9990000 -27.4990000  -1.1580000 -15.2590000 -26.5610000  -1.3880000
 -14.4020000 -28.0220000  -1.7670000 -13.8000000 -31.7830000   1.9510000
 -13.0820000 -32.1480000   1.0250000 -13.3620000 -31.5640000   3.2050000
 -14.0290000 -31.1970000   3.8540000 -11.9780000 -31.7470000   3.6580000
 -11.2640000 -31.1840000   3.0390000 -11.8030000 -31.3390000   5.1560000
 -12.6460000 -31.7870000   5.7020000 -10.4760000 -31.7780000   5.8100000
  -9.6320000 -31.3300000   5.2650000 -10.4550000 -31.4430000   6.8580000
 -10.3940000 -32.8740000   5.7750000 -11.9720000 -29.8160000   5.3410000
 -11.0050000 -29.3530000   5.0950000 -12.7310000 -29.4860000   4.6160000
 -12.3960000 -29.3930000   6.7540000 -11.6370000 -29.7220000   7.4790000
 -12.4920000 -28.2980000   6.7960000 -13.3630000 -29.8550000   7.0010000
 -11.4690000 -33.1890000   3.4500000 -10.3620000 -33.3580000   2.9420000
 -12.2960000 -34.1890000   3.8070000 -13.1490000 -33.9450000   4.2690000
 -11.9820000 -35.6070000   3.6340000 -10.9810000 -35.8170000   4.0400000
 -13.0100000 -36.4880000   4.3750000 -14.0050000 -36.1400000   4.0590000
 -12.8530000 -37.5170000   4.0200000 -12.9190000 -36.4560000   5.9140000
 -11.8870000 -36.7190000   6.1880000 -13.1310000 -35.4250000   6.2350000
 -13.8990000 -37.4230000   6.6110000 -13.5350000 -38.4420000   6.4130000
 -13.8370000 -37.2150000   7.6890000 -15.3620000 -37.3030000   6.1490000
 -15.6920000 -36.2660000   6.3110000 -15.4060000 -37.5390000   5.0760000
 -16.2440000 -38.2190000   6.8890000 -16.0830000 -38.1160000   7.8710000
 -17.1980000 -38.0020000   6.6830000 -16.0500000 -39.1610000   6.6170000
 -11.8910000 -36.0380000   2.1590000 -10.9780000 -36.7860000   1.8130000
 -12.8330000 -35.5570000   1.3280000 -13.5630000 -35.0160000   1.7460000
 -12.9250000 -35.8610000  -0.1020000 -12.8190000 -36.9420000  -0.2780000
 -14.3120000 -35.4110000  -0.6160000 -15.0540000 -36.0370000  -0.0980000
 -14.4350000 -34.3640000  -0.3030000 -14.5220000 -35.5200000  -2.1400000
 -13.9140000 -34.7330000  -2.6100000 -14.1470000 -36.5060000  -2.4510000
 -15.9870000 -35.3670000  -2.5790000 -16.0180000 -35.3430000  -3.6780000
 -16.5510000 -36.2390000  -2.2160000 -16.6240000 -34.1440000  -2.0620000
 -17.3600000 -34.3110000  -1.4060000 -16.3170000 -32.8720000  -2.3700000
 -15.3480000 -32.5670000  -3.2450000 -14.8310000 -33.2990000  -3.6890000
 -15.1470000 -31.6090000  -3.4500000 -17.0080000 -31.8810000  -1.7910000
 -17.7380000 -32.0970000  -1.1420000 -16.7910000 -30.9300000  -2.0100000
 -11.7710000 -35.2550000  -0.9180000 -11.1740000 -35.9620000  -1.7290000
 -11.4940000 -33.9620000  -0.6900000 -12.0780000 -33.4910000  -0.0290000
 -10.4760000 -33.1820000  -1.3960000 -10.5030000 -33.3160000  -2.4870000
 -10.6370000 -31.6660000  -1.0760000 -10.8250000 -31.5970000   0.0060000
  -9.4410000 -30.7770000  -1.4450000  -9.2520000 -30.8450000  -2.5270000
  -9.6630000 -29.7340000  -1.1770000  -8.5500000 -31.1140000  -0.8960000
 -11.9010000 -31.0920000  -1.7450000 -12.7880000 -31.6270000  -1.3740000
 -11.9910000 -30.0230000  -1.5040000 -11.8280000 -31.2160000  -2.8360000
  -9.0350000 -33.6480000  -1.0980000  -8.2110000 -33.6460000  -2.0120000
  -8.7650000 -34.0610000   0.1520000  -9.4750000 -33.9450000   0.8460000
  -7.4660000 -34.5970000   0.5690000  -6.6550000 -34.1150000   0.0040000
  -7.2540000 -34.3200000   2.0690000  -8.1080000 -34.7480000   2.6150000
  -6.3290000 -34.8300000   2.3780000  -7.1430000 -32.8200000   2.3870000
  -6.4420000 -32.3820000   1.6610000  -8.1410000 -32.3800000   2.2440000
  -6.6530000 -32.5250000   3.8150000  -6.8310000 -31.4550000   4.0000000
  -7.2760000 -33.1220000   4.4970000  -5.1690000 -32.8480000   4.0600000
  -4.9330000 -32.6160000   5.1090000  -5.0140000 -33.9220000   3.8780000
  -4.2870000 -32.0680000   3.1740000  -3.7190000 -31.4560000   3.7240000
  -3.7010000 -32.6900000   2.6550000  -4.8430000 -31.5280000   2.5420000
  -7.2950000 -36.0980000   0.2750000  -6.1580000 -36.5680000   0.2970000
  -8.4100000 -36.8140000   0.0360000  -9.2570000 -36.2870000   0.1060000
  -8.5070000 -38.2680000  -0.1400000  -9.5690000 -38.5550000  -0.1510000
  -7.8480000 -38.7500000  -1.4630000  -8.1080000 -38.0590000  -2.2790000
  -6.7700000 -38.6800000  -1.2550000  -8.1970000 -40.1870000  -1.8780000
  -9.2190000 -40.7160000  -1.3860000  -7.4660000 -40.7070000  -2.7480000
  -7.9930000 -39.0020000   1.1220000  -7.0600000 -39.8030000   1.0520000
  -8.5870000 -38.6490000   2.2700000  -9.3300000 -37.9820000   2.2080000
  -8.1910000 -39.1210000   3.5910000  -7.9630000 -40.1970000   3.5600000
  -6.9230000 -38.3590000   4.0520000  -6.1100000 -38.5940000   3.3500000
  -7.1400000 -37.2810000   4.0130000  -6.5290000 -38.7130000   5.3650000
  -5.7100000 -38.1970000   5.6170000  -9.3730000 -38.9190000   4.5420000
  -9.8700000 -37.8020000   4.6470000  -9.7810000 -39.9850000   5.2440000
  -9.4310000 -40.8840000   4.9810000 -10.7950000 -39.9170000   6.3020000
 -11.4450000 -39.0420000   6.1540000 -11.6640000 -41.1900000   6.2600000
 -10.9940000 -42.0580000   6.3430000 -12.3390000 -41.1650000   7.1280000
 -12.4960000 -41.3040000   4.9630000 -13.1400000 -40.4130000   4.9240000
 -11.8040000 -41.2940000   4.1080000 -13.3640000 -42.5630000   4.9020000
 -13.5360000 -43.0720000   3.7730000 -13.8570000 -42.9860000   5.9700000
 -10.1800000 -39.6810000   7.6980000 -10.9280000 -39.4830000   8.6550000
  -8.8380000 -39.6920000   7.7740000  -8.3700000 -39.8180000   6.8990000
  -8.0280000 -39.6230000   8.9900000  -8.6560000 -39.7360000   9.8860000
  -6.9970000 -40.7840000   8.9560000  -7.5010000 -41.6920000   8.5940000
  -6.2610000 -40.4520000   8.2090000  -6.2820000 -41.0890000  10.2780000
  -6.9310000 -40.9550000  11.3390000  -5.1100000 -41.5160000  10.1950000
  -7.3500000 -38.2360000   9.1430000  -6.4290000 -38.1070000   9.9480000
  -7.8030000 -37.2180000   8.3830000  -8.5640000 -37.4260000   7.7680000
  -7.2690000 -35.8470000   8.3930000  -6.2230000 -35.8100000   8.0550000
  -8.1200000 -34.9090000   7.4840000  -9.1720000 -35.0490000   7.7720000
  -7.7510000 -33.4120000   7.5930000  -6.6990000 -33.2720000   7.3040000
  -8.3960000 -32.8250000   6.9230000  -7.8950000 -33.0730000   8.6290000
  -8.0140000 -35.3330000   6.0130000  -8.3810000 -36.3640000   5.9010000
  -8.6210000 -34.6580000   5.3920000  -6.9630000 -35.2820000   5.6910000
  -7.2690000 -35.2340000   9.8190000  -8.3300000 -35.2430000  10.4490000
  -6.1060000 -34.7120000  10.2870000  -4.8070000 -34.7940000   9.6200000
  -4.8180000 -34.1230000   8.7490000  -4.6520000 -35.8290000   9.2830000
  -3.7980000 -34.3700000  10.6690000  -2.9160000 -33.9080000  10.2020000
  -3.4810000 -35.2290000  11.2790000  -4.5690000 -33.3720000  11.5010000
  -4.5760000 -32.3780000  11.0290000  -4.1680000 -33.2890000  12.5220000
  -5.9920000 -33.9400000  11.5420000  -6.1080000 -34.6490000  12.3750000
  -7.0310000 -32.8220000  11.6750000  -7.0780000 -31.9200000  10.8380000
  -7.8860000 -32.9500000  12.6950000  -7.7580000 -33.7070000  13.3350000
  -9.0500000 -32.0960000  12.8610000  -8.8250000 -31.0660000  12.5480000
 -10.1930000 -32.6430000  11.9750000  -9.7520000 -32.8410000  10.9870000
 -10.5110000 -33.5930000  12.4300000 -11.4090000 -31.7190000  11.8170000
 -11.8240000 -31.5460000  12.8210000 -11.0470000 -30.7670000  11.4010000
 -12.7090000 -32.3830000  10.7420000 -11.8580000 -32.3330000   9.1400000
 -10.9550000 -32.9590000   9.1840000 -12.5290000 -32.7130000   8.3560000
 -11.5750000 -31.2960000   8.9070000  -9.4110000 -32.0100000  14.3430000
  -9.2310000 -32.9840000  15.0720000  -9.9130000 -30.8380000  14.7480000
  -9.9540000 -30.1040000  14.0700000 -10.4080000 -30.5650000  16.0920000
 -10.6120000 -31.4840000  16.6610000  -9.4140000 -29.6820000  16.9090000
  -9.1370000 -28.8370000  16.2610000  -9.9660000 -29.1450000  18.2470000
 -10.2420000 -29.9890000  18.8960000  -9.1950000 -28.5380000  18.7450000
 -10.8540000 -28.5250000  18.0550000  -8.0950000 -30.4260000  17.1800000
  -7.6210000 -30.6920000  16.2240000  -7.4190000 -29.7770000  17.7560000
  -8.3010000 -31.3410000  17.7540000 -11.7370000 -29.8160000  15.9350000
 -11.7780000 -28.7860000  15.2590000 -12.7900000 -30.3400000  16.5820000
 -12.7040000 -31.2680000  16.9440000 -14.0690000 -29.6550000  16.7320000
 -14.3500000 -29.1600000  15.7900000 -15.1660000 -30.6840000  17.0970000
 -15.0970000 -31.4170000  16.2790000 -14.9440000 -31.1810000  18.0530000
 -16.5920000 -30.0960000  17.1420000 -16.6020000 -29.2770000  17.8760000
 -17.0400000 -29.5620000  15.7720000 -17.0300000 -30.3810000  15.0370000
 -18.0580000 -29.1540000  15.8520000 -16.3530000 -28.7680000  15.4450000
 -17.6020000 -31.1100000  17.6990000 -17.3110000 -31.3950000  18.7210000
 -18.6050000 -30.6580000  17.7160000 -17.6150000 -32.0050000  17.0590000
 -13.9280000 -28.5580000  17.8000000 -13.4130000 -28.8360000  18.8830000
 -14.3850000 -27.3410000  17.4760000 -14.7560000 -27.2030000  16.5580000
 -14.3140000 -26.1920000  18.3730000 -14.0310000 -26.4830000  19.3960000
 -13.3050000 -25.1220000  17.8630000 -13.5000000 -24.9870000  16.7890000
 -13.3970000 -23.7580000  18.5770000 -13.2020000 -23.8920000  19.6510000
 -12.6510000 -23.0700000  18.1520000 -14.4040000 -23.3370000  18.4370000
 -11.8650000 -25.6490000  17.9700000 -11.7610000 -26.5590000  17.3600000
 -11.1650000 -24.8820000  17.6070000 -11.6370000 -25.8840000  19.0200000
 -15.7080000 -25.5760000  18.5370000 -16.3150000 -25.1760000  17.5460000
 -16.1630000 -25.4900000  19.7950000 -15.6210000 -25.9220000  20.5160000
 -17.3940000 -24.8090000  20.1710000 -18.0510000 -24.6510000  19.3030000
 -17.9420000 -25.3620000  20.9480000 -16.9740000 -23.4550000  20.7290000
 -16.6120000 -23.3660000  21.8980000 -17.0280000 -22.4120000  19.8910000
 -17.2620000 -22.6010000  18.9370000 -16.6870000 -21.0420000  20.2610000
 -15.8920000 -21.0380000  21.0210000 -16.1810000 -20.2810000  19.0100000
 -15.5560000 -20.9780000  18.4330000 -17.0510000 -19.9830000  18.4060000
 -15.3520000 -19.0260000  19.3280000 -14.6080000 -18.9820000  20.3070000
 -15.4910000 -17.9910000  18.5040000 -14.9730000 -17.1510000  18.6680000
 -16.1130000 -18.0570000  17.7240000 -17.8740000 -20.3200000  20.9220000
 -19.0140000 -20.7730000  20.8330000 -17.5580000 -19.1790000  21.5540000
 -16.5740000 -19.0400000  21.6680000 -18.4700000 -18.2470000  22.2140000
 -17.8910000 -17.3900000  22.5880000 -19.5750000 -17.7210000  21.2620000
 -20.3290000 -18.5190000  21.1970000 -20.0130000 -16.8420000  21.7580000
 -19.1150000 -17.3340000  19.8440000 -18.0940000 -16.9300000  19.9130000
 -19.1080000 -18.2430000  19.2250000 -20.0360000 -16.2880000  19.2040000
 -21.0710000 -16.6500000  19.2920000 -19.9270000 -15.3510000  19.7700000
 -19.7070000 -16.0350000  17.7290000 -18.6380000 -15.7910000  17.6440000
 -19.9200000 -16.9510000  17.1590000 -20.5070000 -14.9250000  17.1890000
 -21.4390000 -14.9820000  17.5460000 -20.0970000 -14.0550000  17.4640000
 -20.5280000 -14.9840000  16.1910000 -19.0450000 -18.8000000  23.5310000
 -20.1740000 -18.4630000  23.8830000 -18.2570000 -19.6190000  24.2530000
 -17.3930000 -19.8880000  23.8280000 -18.6340000 -20.2490000  25.5270000
 -19.6580000 -20.6440000  25.4460000 -17.6880000 -21.4070000  25.8910000
 -16.6250000 -21.1450000  25.7890000 -17.8710000 -21.8150000  26.8960000
 -17.9820000 -22.7700000  24.7350000 -17.0970000 -23.5740000  25.2450000
 -18.7820000 -19.2700000  26.7110000 -19.2590000 -19.6880000  27.7660000
 -18.4310000 -17.9890000  26.5090000 -17.8840000 -17.8050000  25.6920000
 -18.7170000 -16.8770000  27.4170000 -18.4720000 -17.1850000  28.4440000
 -17.8980000 -15.6070000  27.0710000 -18.3030000 -14.8180000  27.7220000
 -16.8470000 -15.7960000  27.3340000 -17.9850000 -15.1560000  25.6070000
 -17.4550000 -15.8760000  24.7340000 -18.5560000 -14.0660000  25.3860000
 -20.2210000 -16.5170000  27.4570000 -20.6690000 -15.9700000  28.4640000
 -20.9570000 -16.8020000  26.3660000 -20.4940000 -17.2880000  25.6250000
 -22.3650000 -16.4450000  26.1880000 -22.5540000 -15.4260000  26.5560000
 -22.7130000 -16.4990000  24.6810000 -22.4180000 -17.5200000  24.3950000
 -23.7970000 -16.3780000  24.5400000 -21.9620000 -15.4800000  23.7960000
 -20.8790000 -15.6480000  23.8940000 -22.3750000 -15.6440000  22.3240000
 -23.4580000 -15.4760000  22.2250000 -21.8330000 -14.9120000  21.7060000
 -22.1310000 -16.6610000  21.9850000 -22.1560000 -14.0230000  24.2570000
 -21.7830000 -13.9100000  25.2850000 -21.5990000 -13.3490000  23.5890000
 -23.2260000 -13.7680000  24.2260000 -23.2800000 -17.4200000  26.9620000
 -23.2240000 -18.6190000  26.6820000 -24.1140000 -16.9100000  27.9010000
 -24.2120000 -15.5100000  28.3290000 -24.3200000 -14.8800000  27.4340000
 -23.2840000 -15.2420000  28.8560000 -25.4350000 -15.4500000  29.2380000
 -26.3430000 -15.2140000  28.6640000 -25.3000000 -14.7020000  30.0330000
 -25.4940000 -16.8530000  29.8180000 -26.5060000 -17.1310000  30.1480000
 -24.7930000 -16.9560000  30.6600000 -25.0550000 -17.7590000  28.6570000
 -24.4740000 -18.6110000  29.0400000 -26.2590000 -18.2830000  27.8430000
 -26.8580000 -19.2740000  28.2610000 -26.5810000 -17.6400000  26.7050000
 -26.0950000 -16.7840000  26.5290000 -27.6620000 -18.0260000  25.7920000
 -28.4660000 -18.5420000  26.3370000 -28.2440000 -16.7470000  25.1470000
 -28.5500000 -16.0630000  25.9520000 -27.4540000 -16.2750000  24.5450000
 -29.3580000 -17.0320000  24.3230000 -29.7050000 -16.1820000  23.9250000
 -27.1780000 -19.0850000  24.7760000 -27.1260000 -18.8240000  23.5740000
 -26.8260000 -20.2670000  25.3030000 -26.8360000 -20.3060000  26.3020000
 -26.3940000 -21.4550000  24.5680000 -25.7130000 -21.2010000  23.7430000
 -25.6320000 -22.3400000  25.5840000 -24.7850000 -21.7340000  25.9390000
 -26.3300000 -22.5170000  26.4160000 -25.1110000 -23.6910000  25.0550000
 -25.9730000 -24.2440000  24.6520000 -24.4010000 -23.4780000  24.2430000
 -24.4160000 -24.5390000  26.1330000 -25.0550000 -24.5380000  27.0290000
 -24.3240000 -25.5660000  25.7500000 -23.0790000 -24.0550000  26.5070000
 -23.0540000 -23.2630000  27.1170000 -21.9130000 -24.5760000  26.0850000
 -21.8690000 -25.5840000  25.2040000 -22.7190000 -25.9670000  24.8440000
 -20.9860000 -25.9490000  24.9100000 -20.7610000 -24.0930000  26.5660000
 -20.7750000 -23.3490000  27.2340000 -19.8920000 -24.4780000  26.2540000
 -27.5990000 -22.1870000  23.9410000 -28.6650000 -22.2270000  24.5560000
 -27.3920000 -22.7800000  22.7530000 -26.5200000 -22.5960000  22.3000000
 -28.3690000 -23.6350000  22.0630000 -29.2270000 -23.9070000  22.6950000
 -28.9020000 -22.9920000  20.7500000 -29.6800000 -23.6590000  20.3500000
 -29.4860000 -21.5840000  20.9440000 -28.7090000 -20.9160000  21.3440000
 -29.8400000 -21.1970000  19.9770000 -30.3280000 -21.6290000  21.6510000
 -27.9430000 -22.9570000  19.7060000 -28.3480000 -22.5340000  18.8960000
 -27.7890000 -25.0230000  21.7140000 -28.5760000 -25.9530000  21.5370000
 -26.4520000 -25.1510000  21.6450000 -25.9070000 -24.3230000  21.7730000
 -25.7520000 -26.4120000  21.4150000 -26.4460000 -27.2250000  21.1550000
 -24.6770000 -26.2980000  20.2950000 -23.9510000 -25.5300000  20.6010000
 -23.9390000 -27.6310000  20.0390000 -24.6640000 -28.3990000  19.7320000
 -23.1940000 -27.4920000  19.2420000 -23.4320000 -27.9530000  20.9610000
 -25.2760000 -25.7820000  18.9750000 -25.7130000 -24.7850000  19.1350000
 -24.4850000 -25.7160000  18.2130000 -26.0590000 -26.4740000  18.6320000
 -25.0480000 -26.7940000  22.7260000 -24.1370000 -26.0870000  23.1630000
 -25.4980000 -27.9060000  23.3260000 -26.2950000 -28.3440000  22.9090000
 -24.9700000 -28.4670000  24.5740000 -24.9300000 -27.6640000  25.3250000
 -25.8280000 -29.6300000  25.1380000 -25.6170000 -30.4520000  24.4380000
 -25.4640000 -29.9000000  26.1400000 -27.3390000 -29.3820000  25.1940000
 -27.7410000 -28.2010000  25.2830000 -28.0660000 -30.3990000  25.2290000
 -23.5150000 -28.9400000  24.4300000 -23.0760000 -29.2820000  23.3300000
 -22.8130000 -29.0060000  25.5720000 -23.2120000 -28.5910000  26.3900000
 -21.4920000 -29.6290000  25.6830000 -20.7880000 -29.1640000  24.9780000
 -20.9200000 -29.4910000  27.1200000 -21.6000000 -30.0440000  27.7850000
 -19.4840000 -30.0180000  27.3020000 -18.8030000 -29.4660000  26.6380000
 -19.1710000 -29.8770000  28.3470000 -19.4520000 -31.0890000  27.0520000
 -20.9310000 -28.1280000  27.5000000 -20.5630000 -28.0370000  28.4250000
 -21.5370000 -31.1310000  25.3260000 -20.6350000 -31.6100000  24.6420000
 -22.6190000 -31.8180000  25.7400000 -23.2360000 -31.3380000  26.3640000
 -22.8680000 -33.2330000  25.4720000 -21.9520000 -33.8200000  25.6300000
 -23.9580000 -33.7500000  26.4350000 -23.6890000 -33.3880000  27.4380000
 -24.9030000 -33.2850000  26.1190000 -24.1270000 -35.2850000  26.4710000
 -23.2570000 -35.7190000  25.9560000 -24.1150000 -35.5880000  27.5280000
 -25.4200000 -35.7910000  25.8080000 -26.2580000 -35.2170000  26.2310000
 -25.3430000 -35.5870000  24.7300000 -25.6650000 -37.2940000  26.0290000
 -25.6800000 -37.4840000  27.1120000 -26.6450000 -37.5490000  25.5990000
 -24.6230000 -38.1230000  25.4010000 -23.7420000 -37.9390000  25.8380000
 -24.8550000 -39.0900000  25.5110000 -24.5640000 -37.9040000  24.4270000
 -23.1720000 -33.5340000  23.9920000 -22.6800000 -34.5480000  23.5050000
 -23.9020000 -32.6410000  23.2920000 -24.3400000 -31.9030000  23.8060000
 -24.1460000 -32.7220000  21.8420000 -24.6630000 -33.6650000  21.6090000
 -25.0240000 -31.5440000  21.3590000 -24.6270000 -30.6360000  21.8360000
 -24.8900000 -31.4730000  20.2690000 -26.5190000 -31.6800000  21.6820000
 -26.9260000 -32.6020000  21.2410000 -26.6460000 -31.7090000  22.7740000
 -27.3020000 -30.4870000  21.1300000 -27.5310000 -29.5100000  21.8360000
 -27.7000000 -30.5510000  19.8570000 -28.2140000 -29.7920000  19.4580000
 -27.4820000 -31.3580000  19.3080000 -22.8550000 -32.7590000  21.0100000
 -22.7090000 -33.6260000  20.1490000 -21.9500000 -31.8110000  21.3000000
 -22.2060000 -31.1350000  21.9910000 -20.6790000 -31.6430000  20.6060000
 -20.8750000 -31.7570000  19.5300000 -20.1840000 -30.2220000  20.8640000
 -19.9750000 -30.0950000  21.9360000 -19.2640000 -30.0430000  20.2880000
 -20.9560000 -29.5030000  20.5530000 -19.6230000 -32.6980000  20.9760000
 -18.8110000 -33.0390000  20.1180000 -19.6860000 -33.2420000  22.2050000
 -20.2480000 -32.7760000  22.8880000 -18.9090000 -34.4120000  22.6250000
 -17.8490000 -34.2680000  22.3710000 -19.0270000 -34.6150000  24.1490000
 -20.0800000 -34.4570000  24.4260000 -18.7430000 -35.6550000  24.3690000
 -18.1330000 -33.6560000  24.9610000 -17.0840000 -33.8570000  24.6990000
 -18.3980000 -32.6340000  24.6520000 -18.2870000 -33.7630000  26.4820000
 -19.4160000 -34.2760000  26.9790000 -17.3870000 -33.3640000  27.2160000
 -17.4900000 -33.4190000  28.2090000 -16.5510000 -32.9840000  26.8210000
 -19.2990000 -35.6930000  21.8700000 -18.4070000 -36.4550000  21.5050000
 -20.6080000 -35.8860000  21.6220000 -21.2510000 -35.2860000  22.0980000
 -21.1490000 -36.9960000  20.8290000 -20.6040000 -37.9090000  21.1100000
 -22.6640000 -37.2420000  21.0320000 -23.1220000 -36.3250000  20.6320000
 -22.9730000 -38.1030000  20.4210000 -23.1230000 -37.4530000  22.4810000
 -22.2710000 -37.7370000  23.3540000 -24.3540000 -37.3980000  22.6860000
 -20.8260000 -36.8830000  19.3320000 -20.5310000 -37.9090000  18.7200000
 -20.8510000 -35.6560000  18.7760000 -21.2110000 -34.9010000  19.3250000
 -20.4800000 -35.3880000  17.3830000 -20.9980000 -36.0950000  16.7180000
 -20.8790000 -33.9470000  16.9800000 -21.9440000 -33.9260000  17.2540000
 -20.3380000 -33.1790000  17.5530000 -20.7300000 -33.6600000  15.4650000
 -19.6960000 -33.8980000  15.1730000 -21.7080000 -34.4910000  14.6120000
 -22.7420000 -34.2540000  14.9030000 -21.5630000 -34.2510000  13.5480000
 -21.5180000 -35.5620000  14.7760000 -20.8230000 -32.1620000  15.1350000
 -20.0230000 -31.6200000  15.6610000 -20.7110000 -32.0180000  14.0500000
 -21.8010000 -31.7750000  15.4570000 -18.9860000 -35.6530000  17.1270000
 -18.6490000 -36.2930000  16.1330000 -18.1290000 -35.1840000  18.0470000
 -18.5090000 -34.6110000  18.7730000 -16.6840000 -35.3810000  18.0060000
 -16.3370000 -35.0980000  17.0010000 -16.0390000 -34.4460000  19.0270000
 -16.3700000 -34.7220000  20.0390000 -14.9440000 -34.5330000  18.9630000
 -16.3380000 -33.4090000  18.8150000 -16.2550000 -36.8380000  18.2360000
 -15.2670000 -37.2550000  17.6390000 -17.0200000 -37.5960000  19.0440000
 -17.7180000 -37.1270000  19.5850000 -16.8120000 -39.0280000  19.2720000
 -15.7420000 -39.2390000  19.4150000 -17.5760000 -39.4680000  20.5410000
 -17.2990000 -38.7650000  21.3400000 -18.6490000 -39.3670000  20.3200000
 -17.2800000 -40.9110000  21.0000000 -17.5310000 -41.5710000  20.1570000
 -16.2000000 -40.9660000  21.1990000 -18.0550000 -41.3590000  22.2510000
 -19.1170000 -41.4580000  21.9840000 -17.6650000 -42.3370000  22.5680000
 -17.9380000 -40.4180000  23.3760000 -17.0720000 -40.4330000  23.8760000
 -18.8900000 -39.5520000  23.7660000 -20.0860000 -39.5240000  23.1640000
 -20.2790000 -40.1550000  22.4120000 -20.7810000 -38.8730000  23.4690000
 -18.6470000 -38.7080000  24.7770000 -17.7590000 -38.7260000  25.2360000
 -19.3550000 -38.0640000  25.0670000 -17.1740000 -39.8780000  18.0390000
 -16.4730000 -40.8530000  17.7700000 -18.2190000 -39.4700000  17.2930000
 -18.8100000 -38.7660000  17.6880000 -18.6310000 -40.0960000  16.0310000
 -18.6020000 -41.1920000  16.1230000 -20.0770000 -39.6670000  15.6850000
 -20.5130000 -40.4680000  15.0700000 -20.6280000 -39.5930000  16.6340000
 -20.1680000 -38.4370000  14.9910000 -21.1280000 -38.2300000  14.8050000
 -17.6260000 -39.8580000  14.8820000 -17.5120000 -40.7100000  14.0020000
 -16.9010000 -38.7270000  14.9360000 -17.1510000 -38.0700000  15.6470000
 -15.8130000 -38.3790000  14.0210000 -16.0150000 -38.7680000  13.0120000
 -15.7040000 -36.8420000  13.9440000 -15.5330000 -36.5480000  14.9900000
 -14.8010000 -36.6290000  13.3520000 -16.8780000 -36.0530000  13.3800000
 -17.8690000 -36.6440000  12.5620000 -17.8330000 -37.7240000  12.3540000
 -18.9010000 -35.8550000  12.0140000 -19.6730000 -36.3230000  11.3850000
 -18.9480000 -34.4720000  12.2740000 -19.9290000 -33.7050000  11.7160000
 -20.5570000 -34.2310000  11.1420000 -17.9760000 -33.8850000  13.1070000
 -18.0210000 -32.8080000  13.3270000 -16.9490000 -34.6720000  13.6570000
 -16.1920000 -34.2120000  14.3090000 -14.4570000 -38.9720000  14.4540000
 -13.5730000 -39.0910000  13.6060000 -14.3090000 -39.3210000  15.7450000
 -15.1060000 -39.2070000  16.3390000 -13.0770000 -39.8490000  16.3310000
 -13.3240000 -40.3170000  17.2950000 -12.6650000 -40.6080000  15.6500000
 -12.0170000 -38.7560000  16.5620000 -10.8290000 -39.0710000  16.5100000
 -12.4310000 -37.4940000  16.7870000 -13.4200000 -37.3500000  16.8270000
 -11.5510000 -36.3270000  16.9360000 -10.4760000 -36.5490000  17.0110000
 -11.7910000 -35.2980000  15.7850000 -11.0970000 -34.4530000  15.9070000
 -11.5530000 -35.9650000  14.4130000 -12.2470000 -36.8090000  14.2900000
 -11.7260000 -35.2300000  13.6130000 -10.5170000 -36.3310000  14.3570000
 -13.1400000 -34.5330000  15.8400000 -13.9430000 -35.2850000  15.8360000
 -13.1620000 -33.9790000  16.7900000 -13.3480000 -33.5570000  14.6730000
 -13.3260000 -34.1110000  13.7230000 -14.3210000 -33.0560000  14.7820000
 -12.5460000 -32.8040000  14.6770000 -11.7730000 -35.6310000  18.3050000
 -12.8200000 -35.8460000  18.9160000 -10.8170000 -34.7820000  18.7620000
  -9.4520000 -34.6470000  18.2450000  -9.4550000 -33.9280000  17.4130000
  -9.1090000 -35.6270000  17.8820000  -8.6480000 -34.1580000  19.4350000
  -7.7480000 -33.6130000  19.1140000  -8.3570000 -34.9910000  20.0920000
  -9.6330000 -33.2390000  20.1300000  -9.6550000 -32.2440000  19.6610000
  -9.3960000 -33.1340000  21.1990000 -11.0010000 -33.9300000  19.9600000
 -11.2220000 -34.6050000  20.8000000 -12.1220000 -32.8790000  19.8370000
 -12.2760000 -32.2850000  18.7690000 -12.8340000 -32.6410000  20.9530000
 -12.8230000 -33.3460000  21.6620000 -13.6940000 -31.4720000  21.1490000
 -13.6580000 -30.8410000  20.2490000 -15.1600000 -31.8780000  21.4070000
 -15.5450000 -32.2970000  20.4660000 -15.2420000 -32.6320000  22.2040000
 -16.0920000 -30.7370000  21.7900000 -16.2890000 -29.6580000  20.9030000
 -15.7970000 -29.6600000  19.9190000 -17.1000000 -28.5960000  21.2700000
 -17.2420000 -27.7520000  20.5790000 -17.7320000 -28.5940000  22.5050000
 -18.3870000 -27.7540000  22.7780000 -17.5420000 -29.6450000  23.3940000
 -18.0500000 -29.6320000  24.3700000 -16.7160000 -30.7080000  23.0550000
 -16.5500000 -31.5250000  23.7720000 -13.1400000 -30.5970000  22.2770000
 -12.8910000 -31.1100000  23.3680000 -12.9860000 -29.2950000  21.9900000
 -13.1860000 -29.0150000  21.0510000 -12.5110000 -28.2810000  22.9300000
 -12.5930000 -28.6120000  23.9760000 -11.0320000 -27.8760000  22.6260000
 -10.9530000 -27.7910000  21.5320000 -10.5500000 -26.5600000  23.2810000
 -10.6280000 -26.6440000  24.3750000  -9.5020000 -26.3730000  23.0020000
 -11.1760000 -25.7250000  22.9330000 -10.0670000 -29.0210000  23.0170000
  -9.8610000 -28.9160000  24.0920000 -10.6000000 -29.9660000  22.8370000
  -8.7480000 -29.0240000  22.2440000  -8.2150000 -28.0790000  22.4240000
  -8.1260000 -29.8660000  22.5830000  -8.9530000 -29.1300000  21.1680000
 -13.4380000 -27.0580000  22.8430000 -13.5560000 -26.4560000  21.7760000
 -14.0600000 -26.7060000  23.9790000 -14.0270000 -27.3520000  24.7420000
 -14.8320000 -25.4750000  24.1450000 -15.4480000 -25.2920000  23.2520000
 -15.7620000 -25.5990000  25.3670000 -15.1890000 -26.0270000  26.2030000
 -16.1160000 -24.5950000  25.6430000 -16.9680000 -26.5000000  25.0600000
 -17.3910000 -26.1540000  24.1050000 -16.5760000 -27.5210000  24.9390000
 -18.0580000 -26.4970000  26.1290000 -17.7260000 -26.3070000  27.3180000
 -19.2270000 -26.6860000  25.7280000 -13.9050000 -24.2620000  24.2800000
 -12.9240000 -24.3320000  25.0230000 -14.2370000 -23.1830000  23.5530000
 -15.0670000 -23.2310000  22.9970000 -13.4270000 -21.9720000  23.4840000
 -12.7400000 -21.8610000  24.3360000 -12.6010000 -21.8860000  22.1630000
 -11.9550000 -20.9990000  22.2460000 -11.7400000 -23.1180000  21.8720000
 -12.3850000 -24.0050000  21.7880000 -11.1960000 -22.9710000  20.9270000
 -11.0200000 -23.2640000  22.6900000 -13.3930000 -21.6060000  21.0250000
 -12.8090000 -21.5640000  20.2150000 -14.2660000 -20.6890000  23.6160000
 -15.4890000 -20.7030000  23.4800000 -13.5400000 -19.5910000  23.8510000
 -12.5840000 -19.7560000  24.0950000 -14.0150000 -18.2200000  23.8220000
 -14.8490000 -18.1250000  23.1110000 -14.5120000 -17.8040000  25.2220000
 -15.4240000 -18.3800000  25.4400000 -13.7300000 -18.0680000  25.9490000
 -14.7940000 -16.4220000  25.3160000 -15.1110000 -16.2080000  26.2400000
 -12.8390000 -17.3650000  23.3440000 -11.8170000 -17.3020000  24.0270000
 -13.0290000 -16.6930000  22.2010000 -13.8400000 -16.9300000  21.6650000
 -12.1280000 -15.6700000  21.6770000 -11.1060000 -16.0750000  21.6370000
 -12.5740000 -15.3250000  20.2560000 -13.5920000 -14.9100000  20.2810000
 -11.8870000 -14.5820000  19.8250000 -12.5650000 -16.2340000  19.6370000
 -12.0970000 -14.3850000  22.5230000 -11.1540000 -13.6080000  22.3840000
 -13.1280000 -14.1710000  23.3580000 -13.8920000 -14.8140000  23.3030000
 -13.2660000 -13.0050000  24.2220000 -12.8590000 -12.1090000  23.7300000
 -14.7610000 -12.7720000  24.5120000 -15.2700000 -12.7030000  23.5400000
 -15.1250000 -13.6560000  25.0550000 -15.0570000 -11.5080000  25.3350000
 -14.6060000 -11.6300000  26.3310000 -14.5950000 -10.6480000  24.8280000
 -16.5620000 -11.2650000  25.4830000 -16.9830000 -11.1520000  24.4730000
 -16.9980000 -12.1530000  25.9640000 -16.8900000 -10.0210000  26.3150000
 -16.4740000 -10.1490000  27.3250000 -16.4290000  -9.1430000  25.8390000
 -18.3460000  -9.8220000  26.4060000 -18.7240000  -9.7050000  25.4880000
 -18.7650000 -10.6200000  26.8400000 -18.5370000  -9.0060000  26.9510000
 -12.4010000 -13.1080000  25.4890000 -11.6430000 -12.1820000  25.7730000
 -12.5360000 -14.2290000  26.2150000 -13.1400000 -14.9380000  25.8500000
 -11.8890000 -14.4660000  27.5100000 -11.5690000 -13.5380000  28.0060000
 -12.8570000 -15.2280000  28.4600000 -12.3560000 -15.3240000  29.4350000
 -14.2120000 -14.5240000  28.6470000 -14.7140000 -14.4290000  27.6730000
 -14.8430000 -15.1150000  29.3270000 -14.0500000 -13.5240000  29.0750000
 -13.0960000 -16.5580000  28.0360000 -13.7210000 -17.0050000  28.6760000
 -10.5740000 -15.2760000  27.4050000  -9.8880000 -15.4150000  28.4180000
 -10.2500000 -15.7970000  26.2070000 -10.9340000 -15.6380000  25.4950000
  -9.1340000 -16.7070000  25.9100000  -9.1940000 -17.0150000  24.8560000
  -7.7530000 -16.0370000  26.1540000  -7.8570000 -14.9770000  25.8770000
  -7.5440000 -16.1160000  27.2310000  -6.5870000 -16.6660000  25.3550000
  -6.7720000 -17.7490000  25.3070000  -6.6220000 -16.2430000  24.3400000
  -5.2050000 -16.4110000  25.9670000  -5.0590000 -15.3300000  26.1060000
  -5.1340000 -16.9190000  26.9400000  -4.1420000 -16.9210000  25.0920000
  -3.7670000 -17.8160000  25.3330000  -3.6380000 -16.2810000  24.0270000
  -4.0420000 -15.0460000  23.7170000  -4.7280000 -14.5910000  24.2840000
  -3.6560000 -14.5830000  22.9190000  -2.7320000 -16.8890000  23.2530000
  -2.4350000 -17.8180000  23.4720000  -2.3560000 -16.4120000  22.4590000
  -9.2770000 -18.0930000  26.5920000  -8.2760000 -18.7700000  26.8240000
 -10.5190000 -18.5240000  26.8820000 -11.2730000 -17.8690000  26.8210000
 -10.8180000 -19.8890000  27.3260000 -10.1750000 -20.1660000  28.1750000
 -12.2920000 -19.9680000  27.7770000 -12.4180000 -19.2110000  28.5650000
 -12.9010000 -19.6930000  26.9030000 -12.7480000 -21.3460000  28.3090000
 -12.4830000 -22.1010000  27.5540000 -12.1940000 -21.5470000  29.2380000
 -14.2520000 -21.4530000  28.6020000 -14.9870000 -20.3370000  28.6250000
 -14.7530000 -22.5540000  28.8090000 -15.7320000 -22.6300000  29.0000000
 -14.1830000 -23.3750000  28.7870000 -10.5290000 -20.8690000  26.1790000
 -10.9880000 -20.6200000  25.0670000  -9.7690000 -21.9360000  26.4750000
  -9.4110000 -21.9470000  27.4090000  -9.4260000 -23.0510000  25.5850000
  -8.7450000 -23.6980000  26.1570000 -10.3670000 -23.5880000  25.3940000
  -8.7670000 -22.6970000  24.2350000  -8.6050000 -23.6070000  23.4260000
  -8.4120000 -21.4250000  23.9590000  -8.5760000 -20.7410000  24.6690000
  -7.8890000 -20.9720000  22.6620000  -8.4920000 -21.3480000  21.8220000
  -7.8050000 -19.4180000  22.5590000  -7.2780000 -19.0710000  23.4600000
  -7.0820000 -18.8830000  21.3020000  -7.6080000 -19.2290000  20.4000000
  -7.0760000 -17.7830000  21.3220000  -6.0470000 -19.2550000  21.2880000
  -9.2060000 -18.7890000  22.6330000  -9.6780000 -19.0550000  23.5900000
  -9.1210000 -17.6950000  22.5580000  -9.8220000 -19.1670000  21.8030000
  -6.5160000 -21.5930000  22.3500000  -6.3680000 -22.2050000  21.2940000
  -5.5710000 -21.4890000  23.3020000  -5.7440000 -20.8420000  24.0440000
  -4.2640000 -22.1540000  23.2490000  -3.7790000 -21.8890000  22.2980000
  -3.3260000 -21.7560000  24.4100000  -3.7870000 -22.1560000  25.3250000
  -2.3470000 -22.2330000  24.2550000  -3.1390000 -20.2460000  24.5530000
  -2.5120000 -19.6610000  23.6400000  -3.5900000 -19.6970000  25.5790000
  -4.3740000 -23.6830000  23.1510000  -3.6400000 -24.2720000  22.3640000
  -5.3240000 -24.2860000  23.8900000  -5.8020000 -23.7170000  24.5590000
  -5.6080000 -25.7230000  23.8710000  -4.6740000 -26.2810000  24.0340000
  -6.6180000 -26.1150000  24.9790000  -6.3310000 -25.6340000  25.9260000
  -7.5650000 -25.6840000  24.6220000  -6.7950000 -27.6230000  25.2050000
  -5.8700000 -28.3890000  24.8520000  -7.8330000 -27.9750000  25.8050000
  -6.0650000 -26.2100000  22.4790000  -5.5300000 -27.2080000  22.0040000
  -7.0060000 -25.4870000  21.8430000  -7.3980000 -24.7230000  22.3550000
  -7.5620000 -25.7970000  20.5220000  -7.9960000 -26.8050000  20.5980000
  -8.6840000 -24.8030000  20.1840000  -8.2630000 -23.7910000  20.0950000
  -9.1530000 -25.0900000  19.2310000  -9.4400000 -24.8170000  20.9830000
  -6.5070000 -25.8440000  19.4050000  -6.4790000 -26.8180000  18.6510000
  -5.6390000 -24.8180000  19.3510000  -5.8330000 -24.0200000  19.9220000
  -4.5280000 -24.7390000  18.4040000  -4.8600000 -25.0820000  17.4130000
  -4.0200000 -23.2860000  18.2790000  -3.8960000 -22.8010000  19.2580000
  -3.0450000 -23.3460000  17.7730000  -4.8900000 -22.3580000  17.4400000
  -4.8610000 -22.4380000  16.0320000  -4.2050000 -23.1720000  15.5410000
  -5.6560000 -21.5950000  15.2670000  -5.6080000 -21.6480000  14.1690000
  -6.5100000 -20.6870000  15.8810000  -7.1250000 -20.0130000  15.2660000
  -6.5890000 -20.6290000  17.2660000  -7.2800000 -19.9200000  17.7450000
  -5.7980000 -21.4630000  18.0460000  -5.8770000 -21.4290000  19.1430000
  -3.3800000 -25.7280000  18.6950000  -2.8430000 -26.2860000  17.7390000
  -3.0330000 -25.9560000  19.9790000  -3.5030000 -25.4380000  20.6940000
  -1.9700000 -26.8930000  20.3790000  -1.0830000 -26.7130000  19.7540000
  -1.5710000 -26.7280000  21.8630000  -2.5130000 -26.8260000  22.4230000
  -0.9430000 -27.6120000  22.0460000  -0.8340000 -25.4790000  22.3240000
  -0.6780000 -24.3280000  21.5170000  -1.0530000 -24.3290000  20.4830000
  -0.0430000 -23.1810000  22.0350000   0.0650000 -22.2840000  21.4070000
   0.4570000 -23.1840000  23.3520000   1.0580000 -22.0720000  23.8650000
   1.0890000 -21.3110000  23.2170000   0.3330000 -24.3370000  24.1480000
   0.7410000 -24.3490000  25.1700000  -0.3140000 -25.4760000  23.6360000
  -0.4190000 -26.3760000  24.2600000  -2.3630000 -28.3620000  20.1550000
  -1.5070000 -29.1500000  19.7600000  -3.6380000 -28.7050000  20.4090000
  -4.2330000 -28.0120000  20.8150000  -4.1830000 -30.0440000  20.1880000
  -3.5050000 -30.7880000  20.6320000  -5.5910000 -30.2170000  20.8190000
  -6.1870000 -29.3620000  20.4680000  -6.3310000 -31.5280000  20.4910000
  -5.7360000 -32.3840000  20.8420000  -7.3100000 -31.5320000  20.9930000
  -6.4760000 -31.6060000  19.4030000  -5.4530000 -30.1630000  22.2260000
  -6.3510000 -30.2720000  22.6530000  -4.2510000 -30.3900000  18.6910000
  -3.9590000 -31.5320000  18.3510000  -4.5500000 -29.4060000  17.8220000
  -4.8880000 -28.5380000  18.1850000  -4.5320000 -29.5900000  16.3690000
  -5.0940000 -30.4950000  16.0960000  -5.1880000 -28.3720000  15.6770000
  -6.1720000 -28.3520000  16.1680000  -4.6450000 -27.4440000  15.9080000
  -5.3790000 -28.4900000  14.1450000  -4.3870000 -28.6390000  13.6940000
  -6.3060000 -29.6540000  13.7450000  -7.2980000 -29.5050000  14.1960000
  -6.4030000 -29.6860000  12.6500000  -5.8800000 -30.6030000  14.1030000
  -5.8450000 -27.1600000  13.5270000  -5.0940000 -26.3810000  13.7240000
  -5.9690000 -27.2830000  12.4410000  -6.8060000 -26.8640000  13.9740000
  -3.1220000 -29.8880000  15.8210000  -2.9970000 -30.7210000  14.9270000
  -2.0930000 -29.2480000  16.4000000  -2.3240000 -28.5210000  17.0460000
  -0.6780000 -29.4910000  16.1040000  -0.4460000 -29.5200000  15.0290000
   0.2080000 -28.4030000  16.7750000  -0.1720000 -28.2930000  17.8020000
   1.7240000 -28.6880000  16.8160000   2.1040000 -28.7980000  15.7900000
   2.2420000 -27.8530000  17.3100000   1.9080000 -29.6170000  17.3760000
  -0.0380000 -27.0430000  16.1090000  -1.0970000 -26.7660000  16.2190000
   0.5920000 -26.2800000  16.5890000   0.2140000 -27.1070000  15.0400000
  -0.2130000 -30.8950000  16.5430000   0.5510000 -31.5220000  15.8110000
  -0.7230000 -31.3760000  17.6920000  -1.2180000 -30.7290000  18.2720000
  -0.5140000 -32.7370000  18.1910000   0.5510000 -33.0030000  18.1280000
  -0.9590000 -32.8280000  19.6660000  -1.9830000 -32.4290000  19.7240000
  -0.9650000 -33.8930000  19.9390000  -0.0510000 -32.0530000  20.6400000
   0.9290000 -32.5520000  20.6640000   0.0700000 -31.0300000  20.2540000
  -0.6330000 -31.9980000  22.0600000  -1.6240000 -31.5230000  22.0270000
  -0.7310000 -33.0210000  22.4520000   0.2290000 -31.2270000  22.9680000
   1.2030000 -31.4400000  22.8890000  -0.1550000 -30.3010000  23.8650000
   0.7670000 -29.7720000  24.6780000   1.7190000 -30.0690000  24.6090000
   0.5000000 -29.0820000  25.3510000  -1.4300000 -29.8970000  23.9730000
  -2.1280000 -30.2890000  23.3730000  -1.6770000 -29.2060000  24.6520000
  -1.2120000 -33.8020000  17.3210000  -0.6170000 -34.8560000  17.1150000
  -2.4140000 -33.5070000  16.7870000  -2.8730000 -32.6830000  17.1180000
  -3.1290000 -34.3680000  15.8340000  -3.1570000 -35.3980000  16.2180000
  -4.5840000 -33.8770000  15.6250000  -4.5140000 -32.8080000  15.3770000
  -4.9730000 -34.4290000  14.7570000  -5.5400000 -34.0660000  16.8250000
  -5.0920000 -33.5310000  17.6760000  -6.4990000 -33.5970000  16.5610000
  -5.7770000 -35.5270000  17.2090000  -6.1100000 -36.3150000  16.2980000
  -5.6280000 -35.8280000  18.4140000  -2.4010000 -34.5000000  14.4820000
  -2.3980000 -35.5940000  13.9190000  -1.7730000 -33.4090000  14.0010000
  -1.9160000 -32.5440000  14.4810000  -0.9520000 -33.4030000  12.7830000
  -1.4480000 -33.9690000  11.9810000  -0.6260000 -31.9650000  12.2790000
  -0.2070000 -31.4150000  13.1350000   0.3650000 -31.9050000  11.0940000
  -0.0530000 -32.4550000  10.2380000   0.5340000 -30.8560000  10.8090000
   1.3210000 -32.3620000  11.3910000  -1.9000000 -31.1970000  11.8770000
  -2.1730000 -31.5140000  10.8600000  -2.6980000 -31.4850000  12.5770000
  -1.7190000 -29.6760000  11.9060000  -0.9220000 -29.3870000  11.2050000
  -2.6600000 -29.1880000  11.6100000  -1.4460000 -29.3580000  12.9230000
   0.3650000 -34.1730000  12.9780000   0.7540000 -34.9230000  12.0830000
   0.9980000 -34.0010000  14.1510000   0.6410000 -33.2920000  14.7600000
   2.2190000 -34.7000000  14.5440000   2.9970000 -34.5720000  13.7770000
   2.7360000 -34.1140000  15.8740000   2.7620000 -33.0210000  15.7520000
   1.9980000 -34.3780000  16.6460000   4.1300000 -34.6170000  16.3010000
   4.1210000 -35.7160000  16.2570000   4.8650000 -34.2280000  15.5820000
   4.5120000 -34.1650000  17.7180000   3.6910000 -34.4240000  18.4020000
   5.4250000 -34.6980000  18.0220000   4.7600000 -32.7170000  17.8070000
   5.1720000 -32.3010000  16.9960000   4.4810000 -31.9300000  18.8610000
   3.8890000 -32.4200000  19.9590000   3.6470000 -33.3890000  20.0030000
   3.6920000 -31.8140000  20.7300000   4.8060000 -30.6350000  18.8090000
   5.2500000 -30.2670000  17.9920000   4.6030000 -30.0400000  19.5870000
   2.0150000 -36.2250000  14.6210000   2.8640000 -36.9490000  14.1090000
   0.8850000 -36.6690000  15.2070000   0.3210000 -35.9860000  15.6710000
   0.4880000 -38.0770000  15.2990000   1.3480000 -38.6850000  15.6170000
  -0.6530000 -38.2560000  16.3310000  -1.4500000 -37.5680000  16.0140000
  -0.9980000 -39.2940000  16.2150000  -0.3030000 -37.9920000  17.8130000
   0.3560000 -37.1120000  17.8100000  -1.2540000 -37.7360000  18.3020000
   0.3790000 -39.1440000  18.5860000   0.3030000 -38.8770000  19.6500000
  -0.2310000 -40.0380000  18.3890000   1.8460000 -39.4370000  18.2350000
   2.2270000 -40.1860000  18.9450000   1.8810000 -39.8490000  17.2160000
   2.6800000 -38.2250000  18.3040000   2.3140000 -37.5320000  17.6820000
   2.6760000 -37.8700000  19.2390000   3.6170000 -38.4500000  18.0370000
   0.0930000 -38.7080000  13.9500000   0.3690000 -39.8910000  13.7630000
  -0.5200000 -37.9300000  13.0380000  -0.7880000 -37.0000000  13.3280000
  -0.9090000 -38.3800000  11.6940000  -1.3870000 -39.3580000  11.7440000
  -1.9080000 -37.3750000  11.0910000  -2.7780000 -37.3350000  11.7470000
  -1.4520000 -36.3870000  11.0340000  -2.4250000 -37.6940000   9.7060000
  -3.4150000 -38.6330000   9.4650000  -3.6470000 -38.6320000   8.1500000
  -4.4130000 -39.3270000   7.8060000  -2.8900000 -37.7700000   7.4820000
  -2.8460000 -37.5510000   6.4970000  -2.1030000 -37.1750000   8.4710000
  -1.3670000 -36.4180000   8.2000000   0.2930000 -38.6080000  10.7580000
   0.2290000 -39.5060000   9.9190000   1.3720000 -37.8260000  10.9400000
   1.2560000 -37.0340000  11.5390000   2.6450000 -37.9790000  10.2270000
   2.4630000 -38.1800000   9.1610000   3.4670000 -36.6730000  10.3520000
   3.4240000 -36.3580000  11.4050000   4.5060000 -36.9130000  10.0840000
   2.9550000 -35.5290000   9.4520000   2.7210000 -35.9650000   8.4700000
   2.0330000 -35.1400000   9.9090000   3.9650000 -34.3790000   9.2750000
   4.9070000 -34.8310000   8.9300000   3.5650000 -33.7210000   8.4890000
   4.2280000 -33.5560000  10.5460000   3.2890000 -33.0710000  10.8520000
   4.5640000 -34.2360000  11.3420000   5.2580000 -32.5290000  10.3100000
   6.1110000 -32.9700000  10.0330000   4.9530000 -31.9110000   9.5860000
   5.4090000 -32.0090000  11.1510000   3.4710000 -39.2190000  10.6460000
   4.5260000 -39.4480000  10.0550000   2.9950000 -39.9980000  11.6340000
   2.1280000 -39.7190000  12.0470000   3.6870000 -41.1690000  12.1910000
   4.2570000 -41.6810000  11.4020000   4.6720000 -40.7230000  13.3040000
   5.2260000 -41.6260000  13.6000000   5.3620000 -40.0090000  12.8320000
   4.0350000 -40.0740000  14.5580000   3.2930000 -39.3540000  14.1830000
   3.5220000 -40.8620000  15.1290000   5.0350000 -39.3510000  15.4680000
   4.7110000 -39.2220000  16.6680000   6.0920000 -38.9120000  14.9640000
   2.6160000 -42.1280000  12.6810000   1.5360000 -42.3080000  12.1160000
   2.7874891 -42.7835101  13.7063476  -6.2230000 -17.5800000   0.3680000
  -5.4510000 -16.2600000  -0.6170000  -5.4230009 -16.5988650  -1.6526093
  -6.0931946 -15.3807482  -0.5659877  -4.0190000 -15.8300000  -0.2320000
  -3.9649818 -15.7429881   0.8531778  -3.8150558 -14.8542364  -0.6728992
  -2.9350000 -16.8220000  -0.6970000  -2.5220000 -16.6670000  -1.8480000
  -2.3640000 -17.7180000   0.1560000  -3.0300000 -18.1310000   1.4130000
  -1.9400000 -18.2900000   2.4900000  -2.4109176 -18.6233319   3.4147846
  -1.4693113 -17.3220771   2.6622713  -3.5470331 -19.0790894   1.2650027
  -3.7427081 -17.3673370   1.7208750  -1.2340000 -18.5520000  -0.3370000
  -0.7591686 -18.0631738  -1.1876963  -1.6050090 -19.5320220  -0.6370153
  -0.2100000 -18.7120000   0.8140000   0.2003092 -17.7316359   1.0561418
   0.5985363 -19.3627879   0.4810673  -0.8490000 -19.3150000   2.0930000
   0.1940000 -19.3340000   3.2720000  -0.1240000 -20.1770000   4.2700000
   0.4602007 -20.1270316   5.0923823   1.1950000 -18.6270000   3.3500000
  -1.3930000 -20.7720000   1.8500000  -2.2448538 -20.7180310   1.1721117
  -0.6091219 -21.3699022   1.3850826  -1.8360000 -21.4530000   3.1370000
  -1.1590000 -21.1130000   4.3140000  -1.4610000 -21.7560000   5.5130000
  -0.9371456 -21.4850795   6.4177534  -2.4400000 -22.7490000   5.5450000
  -2.6580017 -23.2620281   6.4700283  -3.1370000 -23.0790000   4.3830000
  -3.9049212 -23.8379259   4.4099895  -2.8410000 -22.4270000   3.1860000
  -3.3909098 -22.6749336   2.2901607 -14.7670000 -14.4810000   8.1520000
 -16.2860000 -14.3170000   8.1950000 -17.0140000 -15.8510000   8.0210000
 -17.0590000 -13.3730000   7.2960000 -16.7430000 -14.0600000  10.0090000
 -15.8970000 -15.0890000  11.3240000 -14.3900000 -14.9910000  11.1190000
 -16.5730000 -16.4230000  11.4740000 -16.2800000 -14.1450000  12.6700000
 -15.7090000 -12.8210000  13.5680000 -15.8730000 -11.5690000  12.7370000
 -14.3950000 -13.2270000  14.1940000 -16.9180000 -12.8840000  14.7870000
 -18.2470000 -12.5570000  14.4260000 -18.8180000 -13.4740000  14.2840000
 -18.2400000 -11.9880000  13.4960000 -18.9020000 -11.7160000  15.5340000
 -18.1280000 -10.4610000  15.9570000 -19.0090000  -9.4120000  16.3340000
 -18.4980000  -8.6420000  16.5930000 -17.2250000 -10.9550000  17.0900000
 -16.8710000 -10.0170000  18.0850000 -16.3120000  -9.3380000  17.7010000
 -16.3260000 -11.4100000  16.6740000 -17.5080000 -10.1260000  15.1260000
 -19.9090000 -11.4330000  15.2260000 -18.9740000 -12.5060000  16.7150000
 -18.1140000 -12.0340000  17.7060000 -18.7340000 -11.5430000  18.4560000
 -17.4020000 -13.1770000  18.4030000 -16.3850000 -13.9330000  17.9400000
 -15.9900000 -13.8410000  16.9390000 -15.9210000 -14.7900000  18.8180000
 -16.6330000 -14.5360000  19.9250000 -16.5190000 -15.1370000  21.2380000
 -15.7810000 -16.0480000  21.6020000 -17.4180000 -14.5410000  22.0850000
 -17.4180000 -14.8710000  23.0400000 -18.3250000 -13.5410000  21.7840000
 -19.0920000 -13.1180000  22.7890000 -19.7740000 -12.3890000  22.6320000
 -18.9910000 -13.5260000  23.7070000 -18.4410000 -13.0300000  20.6060000
 -17.5600000 -13.5550000  19.7060000 -13.1960000 -13.9310000   9.5130000
